<?xml version="1.0" encoding="UTF-8"?>

<!-- generated on 2025-11-08 17:42:02 by Eclipse SUMO sumo Version 1.24.0
<sumoConfiguration xmlns:xsi="http://www.w3.org/2001/XMLSchema-instance" xsi:noNamespaceSchemaLocation="http://sumo.dlr.de/xsd/sumoConfiguration.xsd">

    <input>
        <net-file value="ramp/ramp.net.xml"/>
        <route-files value="ramp/ramp.rou.xml"/>
    </input>

    <output>
        <summary-output value="Output/summary.xml"/>
        <tripinfo-output value="Output/tripinfo.xml"/>
        <edgedata-output value="Output/edgeData.xml"/>
    </output>

    <time>
        <begin value="0"/>
        <end value="900"/>
        <step-length value="0.2"/>
    </time>

    <report>
        <no-step-log value="true"/>
    </report>

</sumoConfiguration>
-->

<meandata xmlns:xsi="http://www.w3.org/2001/XMLSchema-instance" xsi:noNamespaceSchemaLocation="http://sumo.dlr.de/xsd/meandata_file.xsd">
    <interval begin="0.00" end="900.00" id="DEFAULT_EDGEDATA">
        <edge id="main_0" sampledSeconds="1993.26" traveltime="14.88" overlapTraveltime="15.03" density="4.49" laneDensity="2.25" occupancy="1.12" waitingTime="0.00" timeLoss="10.60" speed="33.12" speedRelative="0.99" departed="134" arrived="0" entered="0" left="134" laneChangedFrom="36" laneChangedTo="36"/>
        <edge id="main_1a" sampledSeconds="2233.98" traveltime="13.15" overlapTraveltime="13.30" density="6.24" laneDensity="2.08" occupancy="1.02" waitingTime="0.00" timeLoss="203.38" speed="30.30" speedRelative="0.91" departed="0" arrived="0" entered="168" left="168" laneChangedFrom="64" laneChangedTo="64"/>
        <edge id="main_1b" sampledSeconds="3062.99" traveltime="18.13" overlapTraveltime="18.28" density="5.71" laneDensity="2.86" occupancy="1.42" waitingTime="0.00" timeLoss="43.16" speed="32.87" speedRelative="0.99" departed="0" arrived="168" entered="168" left="0" laneChangedFrom="12" laneChangedTo="12"/>
        <edge id="ramp_0" sampledSeconds="277.69" traveltime="7.71" overlapTraveltime="8.46" density="2.14" laneDensity="2.14" occupancy="1.02" waitingTime="0.00" timeLoss="43.91" speed="17.68" speedRelative="0.80" departed="34" arrived="0" entered="0" left="34" laneChangedFrom="0" laneChangedTo="0"/>
    </interval>
</meandata>
