<?xml version="1.0" encoding="UTF-8"?>

<!-- generated on 2025-11-08 18:17:24 by Eclipse SUMO sumo Version 1.24.0
<sumoConfiguration xmlns:xsi="http://www.w3.org/2001/XMLSchema-instance" xsi:noNamespaceSchemaLocation="http://sumo.dlr.de/xsd/sumoConfiguration.xsd">

    <input>
        <net-file value="ramp/ramp.net.xml"/>
        <route-files value="ramp/ramp.rou.xml"/>
    </input>

    <output>
        <summary-output value="Output/summary.xml"/>
        <tripinfo-output value="Output/tripinfo.xml"/>
        <edgedata-output value="Output/edgeData.xml"/>
    </output>

    <time>
        <begin value="0"/>
        <end value="900"/>
        <step-length value="0.2"/>
    </time>

    <report>
        <no-step-log value="true"/>
    </report>

</sumoConfiguration>
-->

<meandata xmlns:xsi="http://www.w3.org/2001/XMLSchema-instance" xsi:noNamespaceSchemaLocation="http://sumo.dlr.de/xsd/meandata_file.xsd">
    <interval begin="0.00" end="362.40" id="DEFAULT_EDGEDATA">
        <edge id="main_0" sampledSeconds="6147.26" traveltime="16.85" overlapTraveltime="17.07" density="34.42" laneDensity="17.21" occupancy="8.55" waitingTime="0.00" timeLoss="760.19" speed="29.17" speedRelative="0.88" departed="373" arrived="0" entered="0" left="354" laneChangedFrom="35" laneChangedTo="35"/>
        <edge id="main_1a" sampledSeconds="6784.49" traveltime="15.47" overlapTraveltime="15.64" density="47.04" laneDensity="15.68" occupancy="7.72" waitingTime="0.00" timeLoss="1529.10" speed="25.76" speedRelative="0.77" departed="0" arrived="0" entered="443" left="426" laneChangedFrom="115" laneChangedTo="115"/>
        <edge id="main_1b" sampledSeconds="8513.09" traveltime="20.54" overlapTraveltime="20.71" density="39.41" laneDensity="19.71" occupancy="9.79" waitingTime="0.00" timeLoss="1081.52" speed="29.03" speedRelative="0.87" departed="0" arrived="399" entered="426" left="0" laneChangedFrom="13" laneChangedTo="13"/>
        <edge id="ramp_0" sampledSeconds="786.13" traveltime="8.28" overlapTraveltime="9.02" density="15.01" laneDensity="15.01" occupancy="7.19" waitingTime="0.00" timeLoss="155.76" speed="16.57" speedRelative="0.75" departed="91" arrived="0" entered="0" left="89" laneChangedFrom="0" laneChangedTo="0"/>
    </interval>
</meandata>
