<?xml version="1.0" encoding="UTF-8"?>

<!-- generated on 2025-11-08 17:42:02 by Eclipse SUMO sumo Version 1.24.0
<sumoConfiguration xmlns:xsi="http://www.w3.org/2001/XMLSchema-instance" xsi:noNamespaceSchemaLocation="http://sumo.dlr.de/xsd/sumoConfiguration.xsd">

    <input>
        <net-file value="ramp/ramp.net.xml"/>
        <route-files value="ramp/ramp.rou.xml"/>
    </input>

    <output>
        <summary-output value="Output/summary.xml"/>
        <tripinfo-output value="Output/tripinfo.xml"/>
        <edgedata-output value="Output/edgeData.xml"/>
    </output>

    <time>
        <begin value="0"/>
        <end value="900"/>
        <step-length value="0.2"/>
    </time>

    <report>
        <no-step-log value="true"/>
    </report>

</sumoConfiguration>
-->

<tripinfos xmlns:xsi="http://www.w3.org/2001/XMLSchema-instance" xsi:noNamespaceSchemaLocation="http://sumo.dlr.de/xsd/tripinfo_file.xsd">
    <tripinfo id="mainFlow.0" depart="0.00" departLane="main_0_0" departPos="5.10" departSpeed="35.33" departDelay="0.00" arrival="42.60" arrivalLane="main_1b_1" arrivalPos="596.00" arrivalSpeed="35.25" duration="42.60" routeLength="1494.90" waitingTime="0.00" waitingCount="0" stopTime="0.00" timeLoss="0.16" rerouteNo="0" devices="tripinfo_mainFlow.0" vType="car" speedFactor="1.06" vaporized=""/>
    <tripinfo id="rampFlow.0" depart="0.00" departLane="ramp_0_0" departPos="5.10" departSpeed="20.85" departDelay="0.00" arrival="45.40" arrivalLane="main_1b_0" arrivalPos="596.00" arrivalSpeed="31.24" duration="45.40" routeLength="1146.27" waitingTime="0.00" waitingCount="0" stopTime="0.00" timeLoss="5.95" rerouteNo="0" devices="tripinfo_rampFlow.0" vType="car" speedFactor="0.94" vaporized=""/>
    <tripinfo id="mainFlow.1" depart="4.60" departLane="main_0_1" departPos="5.10" departSpeed="33.68" departDelay="0.10" arrival="49.20" arrivalLane="main_1b_0" arrivalPos="596.00" arrivalSpeed="33.48" duration="44.60" routeLength="1494.90" waitingTime="0.00" waitingCount="0" stopTime="0.00" timeLoss="0.18" rerouteNo="0" devices="tripinfo_mainFlow.1" vType="car" speedFactor="1.01" vaporized=""/>
    <tripinfo id="mainFlow.2" depart="9.00" departLane="main_0_0" departPos="5.10" departSpeed="36.09" departDelay="0.00" arrival="50.80" arrivalLane="main_1b_0" arrivalPos="596.00" arrivalSpeed="36.01" duration="41.80" routeLength="1494.90" waitingTime="0.00" waitingCount="0" stopTime="0.00" timeLoss="0.24" rerouteNo="0" devices="tripinfo_mainFlow.2" vType="car" speedFactor="1.08" vaporized=""/>
    <tripinfo id="mainFlow.3" depart="13.60" departLane="main_0_1" departPos="5.10" departSpeed="34.34" departDelay="0.10" arrival="57.40" arrivalLane="main_1b_0" arrivalPos="596.00" arrivalSpeed="34.22" duration="43.80" routeLength="1494.90" waitingTime="0.00" waitingCount="0" stopTime="0.00" timeLoss="0.17" rerouteNo="0" devices="tripinfo_mainFlow.3" vType="car" speedFactor="1.03" vaporized=""/>
    <tripinfo id="rampFlow.1" depart="18.00" departLane="ramp_0_0" departPos="5.10" departSpeed="23.24" departDelay="0.00" arrival="60.60" arrivalLane="main_1b_0" arrivalPos="596.00" arrivalSpeed="34.61" duration="42.60" routeLength="1146.27" waitingTime="0.00" waitingCount="0" stopTime="0.00" timeLoss="7.06" rerouteNo="0" devices="tripinfo_rampFlow.1" vType="car" speedFactor="1.05" vaporized=""/>
    <tripinfo id="mainFlow.4" depart="18.00" departLane="main_0_0" departPos="5.10" departSpeed="27.70" departDelay="0.00" arrival="72.40" arrivalLane="main_1b_0" arrivalPos="596.00" arrivalSpeed="27.61" duration="54.40" routeLength="1494.90" waitingTime="0.00" waitingCount="0" stopTime="0.00" timeLoss="0.26" rerouteNo="0" devices="tripinfo_mainFlow.4" vType="car" speedFactor="0.83" vaporized=""/>
    <tripinfo id="mainFlow.5" depart="22.60" departLane="main_0_1" departPos="5.10" departSpeed="29.53" departDelay="0.10" arrival="73.80" arrivalLane="main_1b_0" arrivalPos="596.00" arrivalSpeed="29.42" duration="51.20" routeLength="1494.90" waitingTime="0.00" waitingCount="0" stopTime="0.00" timeLoss="0.41" rerouteNo="0" devices="tripinfo_mainFlow.5" vType="car" speedFactor="0.89" vaporized=""/>
    <tripinfo id="mainFlow.6" depart="27.00" departLane="main_0_0" departPos="5.10" departSpeed="31.26" departDelay="0.00" arrival="75.20" arrivalLane="main_1b_0" arrivalPos="596.00" arrivalSpeed="31.22" duration="48.20" routeLength="1494.90" waitingTime="0.00" waitingCount="0" stopTime="0.00" timeLoss="0.32" rerouteNo="0" devices="tripinfo_mainFlow.6" vType="car" speedFactor="0.94" vaporized=""/>
    <tripinfo id="mainFlow.8" depart="36.00" departLane="main_0_0" departPos="5.10" departSpeed="36.35" departDelay="0.00" arrival="77.60" arrivalLane="main_1b_1" arrivalPos="596.00" arrivalSpeed="36.22" duration="41.60" routeLength="1494.90" waitingTime="0.00" waitingCount="0" stopTime="0.00" timeLoss="0.42" rerouteNo="0" devices="tripinfo_mainFlow.8" vType="car" speedFactor="1.09" vaporized=""/>
    <tripinfo id="rampFlow.2" depart="36.00" departLane="ramp_0_0" departPos="5.10" departSpeed="22.80" departDelay="0.00" arrival="79.20" arrivalLane="main_1b_0" arrivalPos="596.00" arrivalSpeed="34.07" duration="43.20" routeLength="1146.27" waitingTime="0.00" waitingCount="0" stopTime="0.00" timeLoss="7.11" rerouteNo="0" devices="tripinfo_rampFlow.2" vType="car" speedFactor="1.03" vaporized=""/>
    <tripinfo id="mainFlow.7" depart="31.60" departLane="main_0_1" departPos="5.10" departSpeed="28.56" departDelay="0.10" arrival="85.00" arrivalLane="main_1b_0" arrivalPos="596.00" arrivalSpeed="28.33" duration="53.40" routeLength="1494.90" waitingTime="0.00" waitingCount="0" stopTime="0.00" timeLoss="0.99" rerouteNo="0" devices="tripinfo_mainFlow.7" vType="car" speedFactor="0.86" vaporized=""/>
    <tripinfo id="mainFlow.9" depart="40.60" departLane="main_0_0" departPos="5.10" departSpeed="34.90" departDelay="0.10" arrival="86.00" arrivalLane="main_1b_1" arrivalPos="596.00" arrivalSpeed="34.76" duration="45.40" routeLength="1494.90" waitingTime="0.00" waitingCount="0" stopTime="0.00" timeLoss="2.41" rerouteNo="0" devices="tripinfo_mainFlow.9" vType="car" speedFactor="1.05" vaporized=""/>
    <tripinfo id="mainFlow.10" depart="45.00" departLane="main_0_1" departPos="5.10" departSpeed="37.43" departDelay="0.00" arrival="87.20" arrivalLane="main_1b_1" arrivalPos="596.00" arrivalSpeed="37.25" duration="42.20" routeLength="1494.90" waitingTime="0.00" waitingCount="0" stopTime="0.00" timeLoss="2.16" rerouteNo="0" devices="tripinfo_mainFlow.10" vType="car" speedFactor="1.12" vaporized=""/>
    <tripinfo id="mainFlow.11" depart="49.60" departLane="main_0_0" departPos="5.10" departSpeed="33.04" departDelay="0.10" arrival="95.20" arrivalLane="main_1b_0" arrivalPos="596.00" arrivalSpeed="32.97" duration="45.60" routeLength="1494.90" waitingTime="0.00" waitingCount="0" stopTime="0.00" timeLoss="0.18" rerouteNo="0" devices="tripinfo_mainFlow.11" vType="car" speedFactor="0.99" vaporized=""/>
    <tripinfo id="rampFlow.3" depart="54.00" departLane="ramp_0_0" departPos="5.10" departSpeed="19.52" departDelay="0.00" arrival="102.40" arrivalLane="main_1b_0" arrivalPos="596.00" arrivalSpeed="29.07" duration="48.40" routeLength="1146.27" waitingTime="0.00" waitingCount="0" stopTime="0.00" timeLoss="6.07" rerouteNo="0" devices="tripinfo_rampFlow.3" vType="car" speedFactor="0.88" vaporized=""/>
    <tripinfo id="mainFlow.12" depart="54.00" departLane="main_0_1" departPos="5.10" departSpeed="30.89" departDelay="0.00" arrival="102.60" arrivalLane="main_1b_1" arrivalPos="596.00" arrivalSpeed="30.77" duration="48.60" routeLength="1494.90" waitingTime="0.00" waitingCount="0" stopTime="0.00" timeLoss="0.20" rerouteNo="0" devices="tripinfo_mainFlow.12" vType="car" speedFactor="0.93" vaporized=""/>
    <tripinfo id="mainFlow.13" depart="58.60" departLane="main_0_0" departPos="5.10" departSpeed="31.38" departDelay="0.10" arrival="106.60" arrivalLane="main_1b_0" arrivalPos="596.00" arrivalSpeed="31.33" duration="48.00" routeLength="1494.90" waitingTime="0.00" waitingCount="0" stopTime="0.00" timeLoss="0.20" rerouteNo="0" devices="tripinfo_mainFlow.13" vType="car" speedFactor="0.94" vaporized=""/>
    <tripinfo id="mainFlow.15" depart="67.60" departLane="main_0_0" departPos="5.10" departSpeed="38.00" departDelay="0.10" arrival="107.40" arrivalLane="main_1b_1" arrivalPos="596.00" arrivalSpeed="37.99" duration="39.80" routeLength="1494.90" waitingTime="0.00" waitingCount="0" stopTime="0.00" timeLoss="0.35" rerouteNo="0" devices="tripinfo_mainFlow.15" vType="car" speedFactor="1.16" vaporized=""/>
    <tripinfo id="mainFlow.14" depart="63.00" departLane="main_0_1" departPos="5.10" departSpeed="31.20" departDelay="0.00" arrival="111.20" arrivalLane="main_1b_0" arrivalPos="596.00" arrivalSpeed="31.10" duration="48.20" routeLength="1494.90" waitingTime="0.00" waitingCount="0" stopTime="0.00" timeLoss="0.21" rerouteNo="0" devices="tripinfo_mainFlow.14" vType="car" speedFactor="0.94" vaporized=""/>
    <tripinfo id="rampFlow.4" depart="72.00" departLane="ramp_0_0" departPos="5.10" departSpeed="22.45" departDelay="0.00" arrival="115.60" arrivalLane="main_1b_0" arrivalPos="596.00" arrivalSpeed="33.57" duration="43.60" routeLength="1146.27" waitingTime="0.00" waitingCount="0" stopTime="0.00" timeLoss="6.88" rerouteNo="0" devices="tripinfo_rampFlow.4" vType="car" speedFactor="1.01" vaporized=""/>
    <tripinfo id="mainFlow.16" depart="72.00" departLane="main_0_0" departPos="5.10" departSpeed="33.93" departDelay="0.00" arrival="116.40" arrivalLane="main_1b_1" arrivalPos="596.00" arrivalSpeed="33.69" duration="44.40" routeLength="1494.90" waitingTime="0.00" waitingCount="0" stopTime="0.00" timeLoss="0.17" rerouteNo="0" devices="tripinfo_mainFlow.16" vType="car" speedFactor="1.02" vaporized=""/>
    <tripinfo id="mainFlow.17" depart="76.60" departLane="main_0_1" departPos="5.10" departSpeed="32.50" departDelay="0.10" arrival="122.80" arrivalLane="main_1b_0" arrivalPos="596.00" arrivalSpeed="32.34" duration="46.20" routeLength="1494.90" waitingTime="0.00" waitingCount="0" stopTime="0.00" timeLoss="0.20" rerouteNo="0" devices="tripinfo_mainFlow.17" vType="car" speedFactor="0.97" vaporized=""/>
    <tripinfo id="mainFlow.18" depart="81.00" departLane="main_0_0" departPos="5.10" departSpeed="29.65" departDelay="0.00" arrival="131.80" arrivalLane="main_1b_0" arrivalPos="596.00" arrivalSpeed="29.55" duration="50.80" routeLength="1494.90" waitingTime="0.00" waitingCount="0" stopTime="0.00" timeLoss="0.22" rerouteNo="0" devices="tripinfo_mainFlow.18" vType="car" speedFactor="0.89" vaporized=""/>
    <tripinfo id="rampFlow.5" depart="90.00" departLane="ramp_0_0" departPos="5.10" departSpeed="20.38" departDelay="0.00" arrival="136.80" arrivalLane="main_1b_0" arrivalPos="596.00" arrivalSpeed="30.56" duration="46.80" routeLength="1146.27" waitingTime="0.00" waitingCount="0" stopTime="0.00" timeLoss="6.52" rerouteNo="0" devices="tripinfo_rampFlow.5" vType="car" speedFactor="0.92" vaporized=""/>
    <tripinfo id="mainFlow.19" depart="85.60" departLane="main_0_1" departPos="5.10" departSpeed="27.52" departDelay="0.10" arrival="140.20" arrivalLane="main_1b_0" arrivalPos="596.00" arrivalSpeed="27.30" duration="54.60" routeLength="1494.90" waitingTime="0.00" waitingCount="0" stopTime="0.00" timeLoss="0.25" rerouteNo="0" devices="tripinfo_mainFlow.19" vType="car" speedFactor="0.83" vaporized=""/>
    <tripinfo id="mainFlow.20" depart="90.00" departLane="main_0_0" departPos="5.10" departSpeed="29.08" departDelay="0.00" arrival="141.80" arrivalLane="main_1b_0" arrivalPos="596.00" arrivalSpeed="29.00" duration="51.80" routeLength="1494.90" waitingTime="0.00" waitingCount="0" stopTime="0.00" timeLoss="0.26" rerouteNo="0" devices="tripinfo_mainFlow.20" vType="car" speedFactor="0.87" vaporized=""/>
    <tripinfo id="mainFlow.21" depart="94.60" departLane="main_0_1" departPos="5.10" departSpeed="31.62" departDelay="0.10" arrival="142.20" arrivalLane="main_1b_1" arrivalPos="596.00" arrivalSpeed="31.42" duration="47.60" routeLength="1494.90" waitingTime="0.00" waitingCount="0" stopTime="0.00" timeLoss="0.20" rerouteNo="0" devices="tripinfo_mainFlow.21" vType="car" speedFactor="0.95" vaporized=""/>
    <tripinfo id="mainFlow.22" depart="99.00" departLane="main_0_0" departPos="5.10" departSpeed="37.72" departDelay="0.00" arrival="143.40" arrivalLane="main_1b_1" arrivalPos="596.00" arrivalSpeed="33.60" duration="44.40" routeLength="1494.90" waitingTime="0.00" waitingCount="0" stopTime="0.00" timeLoss="4.70" rerouteNo="0" devices="tripinfo_mainFlow.22" vType="car" speedFactor="1.13" vaporized=""/>
    <tripinfo id="mainFlow.24" depart="108.00" departLane="main_0_1" departPos="5.10" departSpeed="38.00" departDelay="0.00" arrival="147.60" arrivalLane="main_1b_1" arrivalPos="596.00" arrivalSpeed="37.93" duration="39.60" routeLength="1494.90" waitingTime="0.00" waitingCount="0" stopTime="0.00" timeLoss="0.13" rerouteNo="0" devices="tripinfo_mainFlow.24" vType="car" speedFactor="1.18" vaporized=""/>
    <tripinfo id="rampFlow.6" depart="108.00" departLane="ramp_0_0" departPos="5.10" departSpeed="25.65" departDelay="0.00" arrival="148.20" arrivalLane="main_1b_0" arrivalPos="596.00" arrivalSpeed="37.94" duration="40.20" routeLength="1146.27" waitingTime="0.00" waitingCount="0" stopTime="0.00" timeLoss="7.67" rerouteNo="0" devices="tripinfo_rampFlow.6" vType="car" speedFactor="1.15" vaporized=""/>
    <tripinfo id="mainFlow.23" depart="103.60" departLane="main_0_0" departPos="5.10" departSpeed="31.04" departDelay="0.10" arrival="153.40" arrivalLane="main_1b_1" arrivalPos="596.00" arrivalSpeed="30.94" duration="49.80" routeLength="1494.90" waitingTime="0.00" waitingCount="0" stopTime="0.00" timeLoss="1.62" rerouteNo="0" devices="tripinfo_mainFlow.23" vType="car" speedFactor="0.93" vaporized=""/>
    <tripinfo id="mainFlow.26" depart="117.00" departLane="main_0_1" departPos="5.10" departSpeed="38.00" departDelay="0.00" arrival="156.60" arrivalLane="main_1b_1" arrivalPos="596.00" arrivalSpeed="37.83" duration="39.60" routeLength="1494.90" waitingTime="0.00" waitingCount="0" stopTime="0.00" timeLoss="0.14" rerouteNo="0" devices="tripinfo_mainFlow.26" vType="car" speedFactor="1.17" vaporized=""/>
    <tripinfo id="mainFlow.25" depart="112.60" departLane="main_0_0" departPos="5.10" departSpeed="33.50" departDelay="0.10" arrival="157.40" arrivalLane="main_1b_0" arrivalPos="596.00" arrivalSpeed="33.36" duration="44.80" routeLength="1494.90" waitingTime="0.00" waitingCount="0" stopTime="0.00" timeLoss="0.17" rerouteNo="0" devices="tripinfo_mainFlow.25" vType="car" speedFactor="1.01" vaporized=""/>
    <tripinfo id="mainFlow.27" depart="121.60" departLane="main_0_0" departPos="5.10" departSpeed="33.16" departDelay="0.10" arrival="167.00" arrivalLane="main_1b_0" arrivalPos="596.00" arrivalSpeed="32.97" duration="45.40" routeLength="1494.90" waitingTime="0.00" waitingCount="0" stopTime="0.00" timeLoss="0.18" rerouteNo="0" devices="tripinfo_mainFlow.27" vType="car" speedFactor="0.99" vaporized=""/>
    <tripinfo id="mainFlow.28" depart="126.00" departLane="main_0_1" departPos="5.10" departSpeed="33.99" departDelay="0.00" arrival="170.20" arrivalLane="main_1b_1" arrivalPos="596.00" arrivalSpeed="33.92" duration="44.20" routeLength="1494.90" waitingTime="0.00" waitingCount="0" stopTime="0.00" timeLoss="0.16" rerouteNo="0" devices="tripinfo_mainFlow.28" vType="car" speedFactor="1.02" vaporized=""/>
    <tripinfo id="rampFlow.7" depart="126.00" departLane="ramp_0_0" departPos="5.10" departSpeed="21.62" departDelay="0.00" arrival="170.60" arrivalLane="main_1b_0" arrivalPos="596.00" arrivalSpeed="32.35" duration="44.60" routeLength="1146.27" waitingTime="0.00" waitingCount="0" stopTime="0.00" timeLoss="6.61" rerouteNo="0" devices="tripinfo_rampFlow.7" vType="car" speedFactor="0.97" vaporized=""/>
    <tripinfo id="mainFlow.29" depart="130.60" departLane="main_0_0" departPos="5.10" departSpeed="38.00" departDelay="0.10" arrival="171.60" arrivalLane="main_1b_1" arrivalPos="596.00" arrivalSpeed="36.76" duration="41.00" routeLength="1494.90" waitingTime="0.00" waitingCount="0" stopTime="0.00" timeLoss="1.51" rerouteNo="0" devices="tripinfo_mainFlow.29" vType="car" speedFactor="1.18" vaporized=""/>
    <tripinfo id="mainFlow.30" depart="135.00" departLane="main_0_1" departPos="5.10" departSpeed="36.74" departDelay="0.00" arrival="176.00" arrivalLane="main_1b_1" arrivalPos="596.00" arrivalSpeed="36.55" duration="41.00" routeLength="1494.90" waitingTime="0.00" waitingCount="0" stopTime="0.00" timeLoss="0.14" rerouteNo="0" devices="tripinfo_mainFlow.30" vType="car" speedFactor="1.10" vaporized=""/>
    <tripinfo id="mainFlow.31" depart="139.60" departLane="main_0_0" departPos="5.10" departSpeed="30.02" departDelay="0.10" arrival="189.80" arrivalLane="main_1b_1" arrivalPos="596.00" arrivalSpeed="30.01" duration="50.20" routeLength="1494.90" waitingTime="0.00" waitingCount="0" stopTime="0.00" timeLoss="0.21" rerouteNo="0" devices="tripinfo_mainFlow.31" vType="car" speedFactor="0.90" vaporized=""/>
    <tripinfo id="rampFlow.8" depart="144.00" departLane="ramp_0_0" departPos="5.10" departSpeed="21.27" departDelay="0.00" arrival="190.80" arrivalLane="main_1b_0" arrivalPos="596.00" arrivalSpeed="31.81" duration="46.80" routeLength="1146.27" waitingTime="0.00" waitingCount="0" stopTime="0.00" timeLoss="7.94" rerouteNo="0" devices="tripinfo_rampFlow.8" vType="car" speedFactor="0.96" vaporized=""/>
    <tripinfo id="mainFlow.32" depart="144.00" departLane="main_0_1" departPos="5.10" departSpeed="34.34" departDelay="0.00" arrival="191.00" arrivalLane="main_1b_1" arrivalPos="596.00" arrivalSpeed="32.17" duration="47.00" routeLength="1494.90" waitingTime="0.00" waitingCount="0" stopTime="0.00" timeLoss="3.36" rerouteNo="0" devices="tripinfo_mainFlow.32" vType="car" speedFactor="1.03" vaporized=""/>
    <tripinfo id="mainFlow.33" depart="148.60" departLane="main_0_0" departPos="5.10" departSpeed="36.39" departDelay="0.10" arrival="192.20" arrivalLane="main_1b_1" arrivalPos="596.00" arrivalSpeed="34.59" duration="43.60" routeLength="1494.90" waitingTime="0.00" waitingCount="0" stopTime="0.00" timeLoss="2.47" rerouteNo="0" devices="tripinfo_mainFlow.33" vType="car" speedFactor="1.09" vaporized=""/>
    <tripinfo id="mainFlow.34" depart="153.00" departLane="main_0_1" departPos="5.10" departSpeed="34.59" departDelay="0.00" arrival="196.40" arrivalLane="main_1b_0" arrivalPos="596.00" arrivalSpeed="34.34" duration="43.40" routeLength="1494.90" waitingTime="0.00" waitingCount="0" stopTime="0.00" timeLoss="0.17" rerouteNo="0" devices="tripinfo_mainFlow.34" vType="car" speedFactor="1.04" vaporized=""/>
    <tripinfo id="mainFlow.35" depart="157.60" departLane="main_0_0" departPos="5.10" departSpeed="34.78" departDelay="0.10" arrival="200.80" arrivalLane="main_1b_0" arrivalPos="596.00" arrivalSpeed="34.67" duration="43.20" routeLength="1494.90" waitingTime="0.00" waitingCount="0" stopTime="0.00" timeLoss="0.17" rerouteNo="0" devices="tripinfo_mainFlow.35" vType="car" speedFactor="1.04" vaporized=""/>
    <tripinfo id="mainFlow.36" depart="162.00" departLane="main_0_1" departPos="5.10" departSpeed="36.26" departDelay="0.00" arrival="203.40" arrivalLane="main_1b_1" arrivalPos="596.00" arrivalSpeed="36.06" duration="41.40" routeLength="1494.90" waitingTime="0.00" waitingCount="0" stopTime="0.00" timeLoss="0.15" rerouteNo="0" devices="tripinfo_mainFlow.36" vType="car" speedFactor="1.09" vaporized=""/>
    <tripinfo id="rampFlow.9" depart="162.00" departLane="ramp_0_0" departPos="5.10" departSpeed="22.16" departDelay="0.00" arrival="206.00" arrivalLane="main_1b_0" arrivalPos="596.00" arrivalSpeed="33.21" duration="44.00" routeLength="1146.27" waitingTime="0.00" waitingCount="0" stopTime="0.00" timeLoss="6.80" rerouteNo="0" devices="tripinfo_rampFlow.9" vType="car" speedFactor="1.00" vaporized=""/>
    <tripinfo id="mainFlow.37" depart="166.60" departLane="main_0_0" departPos="5.10" departSpeed="30.01" departDelay="0.10" arrival="216.80" arrivalLane="main_1b_0" arrivalPos="596.00" arrivalSpeed="29.89" duration="50.20" routeLength="1494.90" waitingTime="0.00" waitingCount="0" stopTime="0.00" timeLoss="0.22" rerouteNo="0" devices="tripinfo_mainFlow.37" vType="car" speedFactor="0.90" vaporized=""/>
    <tripinfo id="rampFlow.10" depart="180.00" departLane="ramp_0_0" departPos="5.10" departSpeed="25.97" departDelay="0.00" arrival="220.00" arrivalLane="main_1b_1" arrivalPos="596.00" arrivalSpeed="37.81" duration="40.00" routeLength="1146.27" waitingTime="0.00" waitingCount="0" stopTime="0.00" timeLoss="7.66" rerouteNo="0" devices="tripinfo_rampFlow.10" vType="car" speedFactor="1.17" vaporized=""/>
    <tripinfo id="mainFlow.38" depart="171.00" departLane="main_0_1" departPos="5.10" departSpeed="29.23" departDelay="0.00" arrival="222.40" arrivalLane="main_1b_0" arrivalPos="596.00" arrivalSpeed="29.14" duration="51.40" routeLength="1494.90" waitingTime="0.00" waitingCount="0" stopTime="0.00" timeLoss="0.23" rerouteNo="0" devices="tripinfo_mainFlow.38" vType="car" speedFactor="0.88" vaporized=""/>
    <tripinfo id="mainFlow.39" depart="175.60" departLane="main_0_0" departPos="5.10" departSpeed="28.34" departDelay="0.10" arrival="228.60" arrivalLane="main_1b_0" arrivalPos="596.00" arrivalSpeed="28.27" duration="53.00" routeLength="1494.90" waitingTime="0.00" waitingCount="0" stopTime="0.00" timeLoss="0.24" rerouteNo="0" devices="tripinfo_mainFlow.39" vType="car" speedFactor="0.85" vaporized=""/>
    <tripinfo id="mainFlow.41" depart="184.60" departLane="main_0_0" departPos="5.10" departSpeed="33.89" departDelay="0.10" arrival="229.40" arrivalLane="main_1b_1" arrivalPos="596.00" arrivalSpeed="33.67" duration="44.80" routeLength="1494.90" waitingTime="0.00" waitingCount="0" stopTime="0.00" timeLoss="0.57" rerouteNo="0" devices="tripinfo_mainFlow.41" vType="car" speedFactor="1.02" vaporized=""/>
    <tripinfo id="mainFlow.42" depart="189.00" departLane="main_0_0" departPos="5.10" departSpeed="36.52" departDelay="0.00" arrival="230.80" arrivalLane="main_1b_1" arrivalPos="596.00" arrivalSpeed="36.47" duration="41.80" routeLength="1494.90" waitingTime="0.00" waitingCount="0" stopTime="0.00" timeLoss="0.80" rerouteNo="0" devices="tripinfo_mainFlow.42" vType="car" speedFactor="1.10" vaporized=""/>
    <tripinfo id="mainFlow.40" depart="180.00" departLane="main_0_1" departPos="5.10" departSpeed="28.49" departDelay="0.00" arrival="232.80" arrivalLane="main_1b_0" arrivalPos="596.00" arrivalSpeed="28.24" duration="52.80" routeLength="1494.90" waitingTime="0.00" waitingCount="0" stopTime="0.00" timeLoss="0.23" rerouteNo="0" devices="tripinfo_mainFlow.40" vType="car" speedFactor="0.85" vaporized=""/>
    <tripinfo id="mainFlow.43" depart="193.60" departLane="main_0_1" departPos="5.10" departSpeed="33.44" departDelay="0.10" arrival="238.60" arrivalLane="main_1b_0" arrivalPos="596.00" arrivalSpeed="33.23" duration="45.00" routeLength="1494.90" waitingTime="0.00" waitingCount="0" stopTime="0.00" timeLoss="0.17" rerouteNo="0" devices="tripinfo_mainFlow.43" vType="car" speedFactor="1.00" vaporized=""/>
    <tripinfo id="mainFlow.44" depart="198.00" departLane="main_0_0" departPos="5.10" departSpeed="33.20" departDelay="0.00" arrival="243.20" arrivalLane="main_1b_1" arrivalPos="596.00" arrivalSpeed="33.03" duration="45.20" routeLength="1494.90" waitingTime="0.00" waitingCount="0" stopTime="0.00" timeLoss="0.17" rerouteNo="0" devices="tripinfo_mainFlow.44" vType="car" speedFactor="1.00" vaporized=""/>
    <tripinfo id="mainFlow.45" depart="202.60" departLane="main_0_1" departPos="5.10" departSpeed="38.00" departDelay="0.10" arrival="244.60" arrivalLane="main_1b_1" arrivalPos="596.00" arrivalSpeed="36.04" duration="42.00" routeLength="1494.90" waitingTime="0.00" waitingCount="0" stopTime="0.00" timeLoss="2.52" rerouteNo="0" devices="tripinfo_mainFlow.45" vType="car" speedFactor="1.14" vaporized=""/>
    <tripinfo id="rampFlow.11" depart="198.00" departLane="ramp_0_0" departPos="5.10" departSpeed="19.97" departDelay="0.00" arrival="245.20" arrivalLane="main_1b_0" arrivalPos="596.00" arrivalSpeed="29.73" duration="47.20" routeLength="1146.27" waitingTime="0.00" waitingCount="0" stopTime="0.00" timeLoss="5.92" rerouteNo="0" devices="tripinfo_rampFlow.11" vType="car" speedFactor="0.90" vaporized=""/>
    <tripinfo id="mainFlow.46" depart="207.00" departLane="main_0_0" departPos="5.10" departSpeed="34.12" departDelay="0.00" arrival="251.00" arrivalLane="main_1b_0" arrivalPos="596.00" arrivalSpeed="34.11" duration="44.00" routeLength="1494.90" waitingTime="0.00" waitingCount="0" stopTime="0.00" timeLoss="0.16" rerouteNo="0" devices="tripinfo_mainFlow.46" vType="car" speedFactor="1.02" vaporized=""/>
    <tripinfo id="mainFlow.48" depart="216.00" departLane="main_0_0" departPos="5.10" departSpeed="36.08" departDelay="0.00" arrival="257.60" arrivalLane="main_1b_1" arrivalPos="596.00" arrivalSpeed="35.89" duration="41.60" routeLength="1494.90" waitingTime="0.00" waitingCount="0" stopTime="0.00" timeLoss="0.15" rerouteNo="0" devices="tripinfo_mainFlow.48" vType="car" speedFactor="1.08" vaporized=""/>
    <tripinfo id="mainFlow.47" depart="211.60" departLane="main_0_1" departPos="5.10" departSpeed="32.31" departDelay="0.10" arrival="258.20" arrivalLane="main_1b_0" arrivalPos="596.00" arrivalSpeed="32.30" duration="46.60" routeLength="1494.90" waitingTime="0.00" waitingCount="0" stopTime="0.00" timeLoss="0.18" rerouteNo="0" devices="tripinfo_mainFlow.47" vType="car" speedFactor="0.97" vaporized=""/>
    <tripinfo id="rampFlow.12" depart="216.00" departLane="ramp_0_0" departPos="5.10" departSpeed="24.87" departDelay="0.00" arrival="259.40" arrivalLane="main_1b_0" arrivalPos="596.00" arrivalSpeed="34.45" duration="43.40" routeLength="1146.27" waitingTime="0.00" waitingCount="0" stopTime="0.00" timeLoss="10.10" rerouteNo="0" devices="tripinfo_rampFlow.12" vType="car" speedFactor="1.12" vaporized=""/>
    <tripinfo id="mainFlow.49" depart="220.60" departLane="main_0_1" departPos="5.10" departSpeed="33.86" departDelay="0.10" arrival="265.00" arrivalLane="main_1b_0" arrivalPos="596.00" arrivalSpeed="33.85" duration="44.40" routeLength="1494.90" waitingTime="0.00" waitingCount="0" stopTime="0.00" timeLoss="0.16" rerouteNo="0" devices="tripinfo_mainFlow.49" vType="car" speedFactor="1.02" vaporized=""/>
    <tripinfo id="mainFlow.50" depart="225.00" departLane="main_0_0" departPos="5.10" departSpeed="32.90" departDelay="0.00" arrival="270.80" arrivalLane="main_1b_0" arrivalPos="596.00" arrivalSpeed="32.66" duration="45.80" routeLength="1494.90" waitingTime="0.00" waitingCount="0" stopTime="0.00" timeLoss="0.18" rerouteNo="0" devices="tripinfo_mainFlow.50" vType="car" speedFactor="0.99" vaporized=""/>
    <tripinfo id="mainFlow.51" depart="229.60" departLane="main_0_1" departPos="5.10" departSpeed="31.25" departDelay="0.10" arrival="277.80" arrivalLane="main_1b_0" arrivalPos="596.00" arrivalSpeed="31.19" duration="48.20" routeLength="1494.90" waitingTime="0.00" waitingCount="0" stopTime="0.00" timeLoss="0.21" rerouteNo="0" devices="tripinfo_mainFlow.51" vType="car" speedFactor="0.94" vaporized=""/>
    <tripinfo id="rampFlow.13" depart="234.00" departLane="ramp_0_0" departPos="5.10" departSpeed="20.15" departDelay="0.00" arrival="281.20" arrivalLane="main_1b_0" arrivalPos="596.00" arrivalSpeed="29.99" duration="47.20" routeLength="1146.27" waitingTime="0.00" waitingCount="0" stopTime="0.00" timeLoss="6.43" rerouteNo="0" devices="tripinfo_rampFlow.13" vType="car" speedFactor="0.91" vaporized=""/>
    <tripinfo id="mainFlow.52" depart="234.00" departLane="main_0_0" departPos="5.10" departSpeed="29.41" departDelay="0.00" arrival="285.20" arrivalLane="main_1b_0" arrivalPos="596.00" arrivalSpeed="29.36" duration="51.20" routeLength="1494.90" waitingTime="0.00" waitingCount="0" stopTime="0.00" timeLoss="0.22" rerouteNo="0" devices="tripinfo_mainFlow.52" vType="car" speedFactor="0.88" vaporized=""/>
    <tripinfo id="mainFlow.54" depart="243.00" departLane="main_0_0" departPos="5.10" departSpeed="34.66" departDelay="0.00" arrival="286.40" arrivalLane="main_1b_1" arrivalPos="596.00" arrivalSpeed="34.61" duration="43.40" routeLength="1494.90" waitingTime="0.00" waitingCount="0" stopTime="0.00" timeLoss="0.16" rerouteNo="0" devices="tripinfo_mainFlow.54" vType="car" speedFactor="1.04" vaporized=""/>
    <tripinfo id="mainFlow.53" depart="238.60" departLane="main_0_1" departPos="5.10" departSpeed="30.48" departDelay="0.10" arrival="288.00" arrivalLane="main_1b_0" arrivalPos="596.00" arrivalSpeed="30.33" duration="49.40" routeLength="1494.90" waitingTime="0.00" waitingCount="0" stopTime="0.00" timeLoss="0.21" rerouteNo="0" devices="tripinfo_mainFlow.53" vType="car" speedFactor="0.91" vaporized=""/>
    <tripinfo id="mainFlow.55" depart="247.60" departLane="main_0_1" departPos="5.10" departSpeed="34.07" departDelay="0.10" arrival="291.80" arrivalLane="main_1b_0" arrivalPos="596.00" arrivalSpeed="34.05" duration="44.20" routeLength="1494.90" waitingTime="0.00" waitingCount="0" stopTime="0.00" timeLoss="0.16" rerouteNo="0" devices="tripinfo_mainFlow.55" vType="car" speedFactor="1.02" vaporized=""/>
    <tripinfo id="mainFlow.56" depart="252.00" departLane="main_0_0" departPos="5.10" departSpeed="34.10" departDelay="0.00" arrival="296.20" arrivalLane="main_1b_1" arrivalPos="596.00" arrivalSpeed="34.00" duration="44.20" routeLength="1494.90" waitingTime="0.00" waitingCount="0" stopTime="0.00" timeLoss="0.17" rerouteNo="0" devices="tripinfo_mainFlow.56" vType="car" speedFactor="1.02" vaporized=""/>
    <tripinfo id="rampFlow.14" depart="252.00" departLane="ramp_0_0" departPos="5.10" departSpeed="21.62" departDelay="0.00" arrival="296.40" arrivalLane="main_1b_0" arrivalPos="596.00" arrivalSpeed="32.42" duration="44.40" routeLength="1146.27" waitingTime="0.00" waitingCount="0" stopTime="0.00" timeLoss="6.43" rerouteNo="0" devices="tripinfo_rampFlow.14" vType="car" speedFactor="0.97" vaporized=""/>