<?xml version="1.0" encoding="UTF-8"?>

<!-- generated on 2025-11-08 18:17:24 by Eclipse SUMO sumo Version 1.24.0
<sumoConfiguration xmlns:xsi="http://www.w3.org/2001/XMLSchema-instance" xsi:noNamespaceSchemaLocation="http://sumo.dlr.de/xsd/sumoConfiguration.xsd">

    <input>
        <net-file value="ramp/ramp.net.xml"/>
        <route-files value="ramp/ramp.rou.xml"/>
    </input>

    <output>
        <summary-output value="Output/summary.xml"/>
        <tripinfo-output value="Output/tripinfo.xml"/>
        <edgedata-output value="Output/edgeData.xml"/>
    </output>

    <time>
        <begin value="0"/>
        <end value="900"/>
        <step-length value="0.2"/>
    </time>

    <report>
        <no-step-log value="true"/>
    </report>

</sumoConfiguration>
-->

<tripinfos xmlns:xsi="http://www.w3.org/2001/XMLSchema-instance" xsi:noNamespaceSchemaLocation="http://sumo.dlr.de/xsd/tripinfo_file.xsd">
    <tripinfo id="mainFlow.0" depart="0.00" departLane="main_0_0" departPos="5.10" departSpeed="35.33" departDelay="0.00" arrival="42.60" arrivalLane="main_1b_1" arrivalPos="596.00" arrivalSpeed="35.31" duration="42.60" routeLength="1494.90" waitingTime="0.00" waitingCount="0" stopTime="0.00" timeLoss="0.16" rerouteNo="0" devices="tripinfo_mainFlow.0" vType="car" speedFactor="1.06" vaporized=""/>
    <tripinfo id="rampFlow.0" depart="0.00" departLane="ramp_0_0" departPos="5.10" departSpeed="20.85" departDelay="0.00" arrival="45.40" arrivalLane="main_1b_0" arrivalPos="596.00" arrivalSpeed="31.17" duration="45.40" routeLength="1146.27" waitingTime="0.00" waitingCount="0" stopTime="0.00" timeLoss="6.01" rerouteNo="0" devices="tripinfo_rampFlow.0" vType="car" speedFactor="0.94" vaporized=""/>
    <tripinfo id="mainFlow.1" depart="1.00" departLane="main_0_1" departPos="5.10" departSpeed="33.68" departDelay="0.03" arrival="45.60" arrivalLane="main_1b_1" arrivalPos="596.00" arrivalSpeed="33.53" duration="44.60" routeLength="1494.90" waitingTime="0.00" waitingCount="0" stopTime="0.00" timeLoss="0.17" rerouteNo="0" devices="tripinfo_mainFlow.1" vType="car" speedFactor="1.01" vaporized=""/>
    <tripinfo id="mainFlow.3" depart="3.00" departLane="main_0_1" departPos="5.10" departSpeed="34.34" departDelay="0.08" arrival="47.00" arrivalLane="main_1b_1" arrivalPos="596.00" arrivalSpeed="34.23" duration="44.00" routeLength="1494.90" waitingTime="0.00" waitingCount="0" stopTime="0.00" timeLoss="0.30" rerouteNo="0" devices="tripinfo_mainFlow.3" vType="car" speedFactor="1.03" vaporized=""/>
    <tripinfo id="rampFlow.1" depart="4.00" departLane="ramp_0_0" departPos="5.10" departSpeed="23.24" departDelay="0.00" arrival="47.40" arrivalLane="main_1b_0" arrivalPos="596.00" arrivalSpeed="34.67" duration="43.40" routeLength="1146.27" waitingTime="0.00" waitingCount="0" stopTime="0.00" timeLoss="7.97" rerouteNo="0" devices="tripinfo_rampFlow.1" vType="car" speedFactor="1.05" vaporized=""/>
    <tripinfo id="mainFlow.2" depart="2.00" departLane="main_0_0" departPos="5.10" departSpeed="36.09" departDelay="0.05" arrival="48.20" arrivalLane="main_1b_1" arrivalPos="596.00" arrivalSpeed="36.09" duration="46.20" routeLength="1494.90" waitingTime="0.00" waitingCount="0" stopTime="0.00" timeLoss="4.63" rerouteNo="0" devices="tripinfo_mainFlow.2" vType="car" speedFactor="1.08" vaporized=""/>
    <tripinfo id="rampFlow.2" depart="8.00" departLane="ramp_0_0" departPos="5.10" departSpeed="22.80" departDelay="0.00" arrival="51.80" arrivalLane="main_1b_0" arrivalPos="596.00" arrivalSpeed="34.13" duration="43.80" routeLength="1146.27" waitingTime="0.00" waitingCount="0" stopTime="0.00" timeLoss="7.72" rerouteNo="0" devices="tripinfo_rampFlow.2" vType="car" speedFactor="1.03" vaporized=""/>
    <tripinfo id="mainFlow.5" depart="5.00" departLane="main_0_1" departPos="5.10" departSpeed="29.53" departDelay="0.14" arrival="56.00" arrivalLane="main_1b_1" arrivalPos="596.00" arrivalSpeed="29.39" duration="51.00" routeLength="1494.90" waitingTime="0.00" waitingCount="0" stopTime="0.00" timeLoss="0.22" rerouteNo="0" devices="tripinfo_mainFlow.5" vType="car" speedFactor="0.89" vaporized=""/>
    <tripinfo id="mainFlow.4" depart="4.00" departLane="main_0_0" departPos="5.10" departSpeed="27.70" departDelay="0.11" arrival="58.80" arrivalLane="main_1b_0" arrivalPos="596.00" arrivalSpeed="27.53" duration="54.80" routeLength="1494.90" waitingTime="0.00" waitingCount="0" stopTime="0.00" timeLoss="0.70" rerouteNo="0" devices="tripinfo_mainFlow.4" vType="car" speedFactor="0.83" vaporized=""/>
    <tripinfo id="mainFlow.7" depart="7.00" departLane="main_0_1" departPos="5.10" departSpeed="28.56" departDelay="0.19" arrival="59.80" arrivalLane="main_1b_1" arrivalPos="596.00" arrivalSpeed="28.33" duration="52.80" routeLength="1494.90" waitingTime="0.00" waitingCount="0" stopTime="0.00" timeLoss="0.41" rerouteNo="0" devices="tripinfo_mainFlow.7" vType="car" speedFactor="0.86" vaporized=""/>
    <tripinfo id="mainFlow.6" depart="6.00" departLane="main_0_0" departPos="5.10" departSpeed="30.29" departDelay="0.16" arrival="60.20" arrivalLane="main_1b_0" arrivalPos="596.00" arrivalSpeed="29.35" duration="54.20" routeLength="1494.90" waitingTime="0.00" waitingCount="0" stopTime="0.00" timeLoss="6.29" rerouteNo="0" devices="tripinfo_mainFlow.6" vType="car" speedFactor="0.94" vaporized=""/>
    <tripinfo id="mainFlow.9" depart="8.80" departLane="main_0_1" departPos="5.10" departSpeed="30.52" departDelay="0.04" arrival="61.00" arrivalLane="main_1b_1" arrivalPos="596.00" arrivalSpeed="30.60" duration="52.20" routeLength="1494.90" waitingTime="0.00" waitingCount="0" stopTime="0.00" timeLoss="9.36" rerouteNo="0" devices="tripinfo_mainFlow.9" vType="car" speedFactor="1.05" vaporized=""/>
    <tripinfo id="rampFlow.3" depart="12.00" departLane="ramp_0_0" departPos="5.10" departSpeed="19.52" departDelay="0.00" arrival="61.40" arrivalLane="main_1b_0" arrivalPos="596.00" arrivalSpeed="29.08" duration="49.40" routeLength="1146.27" waitingTime="0.00" waitingCount="0" stopTime="0.00" timeLoss="7.22" rerouteNo="0" devices="tripinfo_rampFlow.3" vType="car" speedFactor="0.88" vaporized=""/>
    <tripinfo id="mainFlow.11" depart="10.80" departLane="main_0_1" departPos="5.10" departSpeed="32.86" departDelay="0.10" arrival="62.20" arrivalLane="main_1b_1" arrivalPos="596.00" arrivalSpeed="32.15" duration="51.40" routeLength="1494.90" waitingTime="0.00" waitingCount="0" stopTime="0.00" timeLoss="6.14" rerouteNo="0" devices="tripinfo_mainFlow.11" vType="car" speedFactor="0.99" vaporized=""/>
    <tripinfo id="mainFlow.8" depart="7.80" departLane="main_0_0" departPos="5.10" departSpeed="31.44" departDelay="0.02" arrival="62.80" arrivalLane="main_1b_0" arrivalPos="596.00" arrivalSpeed="32.30" duration="55.00" routeLength="1494.90" waitingTime="0.00" waitingCount="0" stopTime="0.00" timeLoss="13.73" rerouteNo="0" devices="tripinfo_mainFlow.8" vType="car" speedFactor="1.09" vaporized=""/>
    <tripinfo id="mainFlow.13" depart="12.80" departLane="main_0_1" departPos="5.10" departSpeed="31.38" departDelay="0.15" arrival="63.40" arrivalLane="main_1b_1" arrivalPos="596.00" arrivalSpeed="31.12" duration="50.60" routeLength="1494.90" waitingTime="0.00" waitingCount="0" stopTime="0.00" timeLoss="2.96" rerouteNo="0" devices="tripinfo_mainFlow.13" vType="car" speedFactor="0.94" vaporized=""/>
    <tripinfo id="mainFlow.10" depart="9.80" departLane="main_0_0" departPos="5.10" departSpeed="31.26" departDelay="0.07" arrival="64.40" arrivalLane="main_1b_0" arrivalPos="596.00" arrivalSpeed="31.59" duration="54.60" routeLength="1494.90" waitingTime="0.00" waitingCount="0" stopTime="0.00" timeLoss="14.59" rerouteNo="0" devices="tripinfo_mainFlow.10" vType="car" speedFactor="1.12" vaporized=""/>
    <tripinfo id="mainFlow.15" depart="14.60" departLane="main_0_1" departPos="5.10" departSpeed="33.39" departDelay="0.01" arrival="64.60" arrivalLane="main_1b_1" arrivalPos="596.00" arrivalSpeed="33.41" duration="50.00" routeLength="1494.90" waitingTime="0.00" waitingCount="0" stopTime="0.00" timeLoss="10.64" rerouteNo="0" devices="tripinfo_mainFlow.15" vType="car" speedFactor="1.16" vaporized=""/>
    <tripinfo id="rampFlow.4" depart="16.00" departLane="ramp_0_0" departPos="5.10" departSpeed="22.45" departDelay="0.00" arrival="65.60" arrivalLane="main_1b_0" arrivalPos="596.00" arrivalSpeed="32.92" duration="49.60" routeLength="1146.27" waitingTime="0.00" waitingCount="0" stopTime="0.00" timeLoss="12.75" rerouteNo="0" devices="tripinfo_rampFlow.4" vType="car" speedFactor="1.01" vaporized=""/>
    <tripinfo id="mainFlow.17" depart="16.60" departLane="main_0_1" departPos="5.10" departSpeed="32.50" departDelay="0.06" arrival="65.80" arrivalLane="main_1b_1" arrivalPos="596.00" arrivalSpeed="32.29" duration="49.20" routeLength="1494.90" waitingTime="0.00" waitingCount="0" stopTime="0.00" timeLoss="3.18" rerouteNo="0" devices="tripinfo_mainFlow.17" vType="car" speedFactor="0.97" vaporized=""/>
    <tripinfo id="mainFlow.12" depart="11.80" departLane="main_0_0" departPos="5.10" departSpeed="30.89" departDelay="0.12" arrival="66.80" arrivalLane="main_1b_0" arrivalPos="596.00" arrivalSpeed="30.85" duration="55.00" routeLength="1494.90" waitingTime="0.00" waitingCount="0" stopTime="0.00" timeLoss="6.50" rerouteNo="0" devices="tripinfo_mainFlow.12" vType="car" speedFactor="0.93" vaporized=""/>
    <tripinfo id="mainFlow.16" depart="15.60" departLane="main_0_0" departPos="5.10" departSpeed="33.13" departDelay="0.03" arrival="67.00" arrivalLane="main_1b_1" arrivalPos="596.00" arrivalSpeed="33.77" duration="51.40" routeLength="1494.90" waitingTime="0.00" waitingCount="0" stopTime="0.00" timeLoss="7.30" rerouteNo="0" devices="tripinfo_mainFlow.16" vType="car" speedFactor="1.02" vaporized=""/>
    <tripinfo id="mainFlow.14" depart="13.80" departLane="main_0_0" departPos="5.10" departSpeed="31.20" departDelay="0.18" arrival="68.00" arrivalLane="main_1b_0" arrivalPos="596.00" arrivalSpeed="31.09" duration="54.20" routeLength="1494.90" waitingTime="0.00" waitingCount="0" stopTime="0.00" timeLoss="6.19" rerouteNo="0" devices="tripinfo_mainFlow.14" vType="car" speedFactor="0.94" vaporized=""/>
    <tripinfo id="mainFlow.18" depart="17.60" departLane="main_0_0" departPos="5.10" departSpeed="29.65" departDelay="0.09" arrival="68.80" arrivalLane="main_1b_1" arrivalPos="596.00" arrivalSpeed="29.58" duration="51.20" routeLength="1494.90" waitingTime="0.00" waitingCount="0" stopTime="0.00" timeLoss="0.59" rerouteNo="0" devices="tripinfo_mainFlow.18" vType="car" speedFactor="0.89" vaporized=""/>
    <tripinfo id="rampFlow.5" depart="20.00" departLane="ramp_0_0" departPos="5.10" departSpeed="20.38" departDelay="0.00" arrival="69.40" arrivalLane="main_1b_0" arrivalPos="596.00" arrivalSpeed="30.35" duration="49.40" routeLength="1146.27" waitingTime="0.00" waitingCount="0" stopTime="0.00" timeLoss="8.99" rerouteNo="0" devices="tripinfo_rampFlow.5" vType="car" speedFactor="0.92" vaporized=""/>
    <tripinfo id="rampFlow.6" depart="24.00" departLane="ramp_0_0" departPos="5.10" departSpeed="25.65" departDelay="0.00" arrival="70.00" arrivalLane="main_1b_1" arrivalPos="596.00" arrivalSpeed="32.32" duration="46.00" routeLength="1146.27" waitingTime="0.00" waitingCount="0" stopTime="0.00" timeLoss="13.49" rerouteNo="0" devices="tripinfo_rampFlow.6" vType="car" speedFactor="1.15" vaporized=""/>
    <tripinfo id="mainFlow.19" depart="18.60" departLane="main_0_1" departPos="5.10" departSpeed="27.52" departDelay="0.11" arrival="73.20" arrivalLane="main_1b_1" arrivalPos="596.00" arrivalSpeed="27.44" duration="54.60" routeLength="1494.90" waitingTime="0.00" waitingCount="0" stopTime="0.00" timeLoss="0.27" rerouteNo="0" devices="tripinfo_mainFlow.19" vType="car" speedFactor="0.83" vaporized=""/>
    <tripinfo id="mainFlow.20" depart="19.60" departLane="main_0_0" departPos="5.10" departSpeed="29.08" departDelay="0.14" arrival="74.40" arrivalLane="main_1b_0" arrivalPos="596.00" arrivalSpeed="28.89" duration="54.80" routeLength="1494.90" waitingTime="0.00" waitingCount="0" stopTime="0.00" timeLoss="3.25" rerouteNo="0" devices="tripinfo_mainFlow.20" vType="car" speedFactor="0.87" vaporized=""/>
    <tripinfo id="mainFlow.21" depart="20.60" departLane="main_0_1" departPos="5.10" departSpeed="30.15" departDelay="0.17" arrival="74.60" arrivalLane="main_1b_1" arrivalPos="596.00" arrivalSpeed="30.22" duration="54.00" routeLength="1494.90" waitingTime="0.00" waitingCount="0" stopTime="0.00" timeLoss="6.57" rerouteNo="0" devices="tripinfo_mainFlow.21" vType="car" speedFactor="0.95" vaporized=""/>
    <tripinfo id="mainFlow.23" depart="22.40" departLane="main_0_1" departPos="5.10" departSpeed="31.04" departDelay="0.02" arrival="75.80" arrivalLane="main_1b_1" arrivalPos="596.00" arrivalSpeed="30.86" duration="53.40" routeLength="1494.90" waitingTime="0.00" waitingCount="0" stopTime="0.00" timeLoss="5.07" rerouteNo="0" devices="tripinfo_mainFlow.23" vType="car" speedFactor="0.93" vaporized=""/>
    <tripinfo id="mainFlow.22" depart="21.60" departLane="main_0_0" departPos="5.10" departSpeed="30.08" departDelay="0.19" arrival="76.80" arrivalLane="main_1b_0" arrivalPos="596.00" arrivalSpeed="32.69" duration="55.20" routeLength="1494.90" waitingTime="0.00" waitingCount="0" stopTime="0.00" timeLoss="15.54" rerouteNo="0" devices="tripinfo_mainFlow.22" vType="car" speedFactor="1.13" vaporized=""/>
    <tripinfo id="mainFlow.25" depart="24.40" departLane="main_0_1" departPos="5.10" departSpeed="33.50" departDelay="0.08" arrival="76.80" arrivalLane="main_1b_1" arrivalPos="596.00" arrivalSpeed="32.74" duration="52.40" routeLength="1494.90" waitingTime="0.00" waitingCount="0" stopTime="0.00" timeLoss="7.77" rerouteNo="0" devices="tripinfo_mainFlow.25" vType="car" speedFactor="1.01" vaporized=""/>
    <tripinfo id="mainFlow.27" depart="26.40" departLane="main_0_1" departPos="5.10" departSpeed="33.16" departDelay="0.13" arrival="78.00" arrivalLane="main_1b_1" arrivalPos="596.00" arrivalSpeed="32.97" duration="51.60" routeLength="1494.90" waitingTime="0.00" waitingCount="0" stopTime="0.00" timeLoss="6.46" rerouteNo="0" devices="tripinfo_mainFlow.27" vType="car" speedFactor="0.99" vaporized=""/>
    <tripinfo id="rampFlow.7" depart="28.00" departLane="ramp_0_0" departPos="5.10" departSpeed="21.62" departDelay="0.00" arrival="78.00" arrivalLane="main_1b_0" arrivalPos="596.00" arrivalSpeed="32.32" duration="50.00" routeLength="1146.27" waitingTime="0.00" waitingCount="0" stopTime="0.00" timeLoss="11.98" rerouteNo="0" devices="tripinfo_rampFlow.7" vType="car" speedFactor="0.97" vaporized=""/>
    <tripinfo id="mainFlow.24" depart="23.40" departLane="main_0_0" departPos="5.10" departSpeed="31.53" departDelay="0.05" arrival="79.20" arrivalLane="main_1b_0" arrivalPos="596.00" arrivalSpeed="34.52" duration="55.80" routeLength="1494.90" waitingTime="0.00" waitingCount="0" stopTime="0.00" timeLoss="16.34" rerouteNo="0" devices="tripinfo_mainFlow.24" vType="car" speedFactor="1.18" vaporized=""/>
    <tripinfo id="mainFlow.29" depart="28.40" departLane="main_0_1" departPos="5.10" departSpeed="36.05" departDelay="0.18" arrival="79.20" arrivalLane="main_1b_1" arrivalPos="596.00" arrivalSpeed="35.01" duration="50.80" routeLength="1494.90" waitingTime="0.00" waitingCount="0" stopTime="0.00" timeLoss="11.34" rerouteNo="0" devices="tripinfo_mainFlow.29" vType="car" speedFactor="1.18" vaporized=""/>
    <tripinfo id="mainFlow.26" depart="25.40" departLane="main_0_0" departPos="5.10" departSpeed="33.39" departDelay="0.10" arrival="80.20" arrivalLane="main_1b_0" arrivalPos="596.00" arrivalSpeed="35.37" duration="54.80" routeLength="1494.90" waitingTime="0.00" waitingCount="0" stopTime="0.00" timeLoss="15.44" rerouteNo="0" devices="tripinfo_mainFlow.26" vType="car" speedFactor="1.17" vaporized=""/>
    <tripinfo id="mainFlow.31" depart="30.20" departLane="main_0_1" departPos="5.10" departSpeed="30.02" departDelay="0.04" arrival="80.80" arrivalLane="main_1b_1" arrivalPos="596.00" arrivalSpeed="29.93" duration="50.60" routeLength="1494.90" waitingTime="0.00" waitingCount="0" stopTime="0.00" timeLoss="0.66" rerouteNo="0" devices="tripinfo_mainFlow.31" vType="car" speedFactor="0.90" vaporized=""/>
    <tripinfo id="rampFlow.8" depart="32.00" departLane="ramp_0_0" departPos="5.10" departSpeed="21.27" departDelay="0.00" arrival="81.80" arrivalLane="main_1b_0" arrivalPos="596.00" arrivalSpeed="31.17" duration="49.80" routeLength="1146.27" waitingTime="0.00" waitingCount="0" stopTime="0.00" timeLoss="11.22" rerouteNo="0" devices="tripinfo_rampFlow.8" vType="car" speedFactor="0.96" vaporized=""/>
    <tripinfo id="mainFlow.33" depart="32.20" departLane="main_0_1" departPos="5.10" departSpeed="32.63" departDelay="0.09" arrival="82.00" arrivalLane="main_1b_1" arrivalPos="596.00" arrivalSpeed="32.52" duration="49.80" routeLength="1494.90" waitingTime="0.00" waitingCount="0" stopTime="0.00" timeLoss="8.61" rerouteNo="0" devices="tripinfo_mainFlow.33" vType="car" speedFactor="1.09" vaporized=""/>
    <tripinfo id="mainFlow.28" depart="27.40" departLane="main_0_0" departPos="5.10" departSpeed="33.99" departDelay="0.16" arrival="83.00" arrivalLane="main_1b_0" arrivalPos="596.00" arrivalSpeed="32.57" duration="55.60" routeLength="1494.90" waitingTime="0.00" waitingCount="0" stopTime="0.00" timeLoss="11.60" rerouteNo="0" devices="tripinfo_mainFlow.28" vType="car" speedFactor="1.02" vaporized=""/>
    <tripinfo id="mainFlow.35" depart="34.20" departLane="main_0_1" departPos="5.10" departSpeed="34.78" departDelay="0.15" arrival="83.20" arrivalLane="main_1b_1" arrivalPos="596.00" arrivalSpeed="34.24" duration="49.00" routeLength="1494.90" waitingTime="0.00" waitingCount="0" stopTime="0.00" timeLoss="5.87" rerouteNo="0" devices="tripinfo_mainFlow.35" vType="car" speedFactor="1.04" vaporized=""/>
    <tripinfo id="mainFlow.30" depart="29.20" departLane="main_0_0" departPos="5.10" departSpeed="35.36" departDelay="0.01" arrival="84.20" arrivalLane="main_1b_0" arrivalPos="596.00" arrivalSpeed="34.68" duration="55.00" routeLength="1494.90" waitingTime="0.00" waitingCount="0" stopTime="0.00" timeLoss="14.26" rerouteNo="0" devices="tripinfo_mainFlow.30" vType="car" speedFactor="1.10" vaporized=""/>
    <tripinfo id="mainFlow.36" depart="35.20" departLane="main_0_0" departPos="5.10" departSpeed="35.04" departDelay="0.17" arrival="84.20" arrivalLane="main_1b_1" arrivalPos="596.00" arrivalSpeed="35.32" duration="49.00" routeLength="1494.90" waitingTime="0.00" waitingCount="0" stopTime="0.00" timeLoss="7.77" rerouteNo="0" devices="tripinfo_mainFlow.36" vType="car" speedFactor="1.09" vaporized=""/>
    <tripinfo id="rampFlow.9" depart="36.00" departLane="ramp_0_0" departPos="5.10" departSpeed="22.16" departDelay="0.00" arrival="85.40" arrivalLane="main_1b_0" arrivalPos="596.00" arrivalSpeed="33.22" duration="49.40" routeLength="1146.27" waitingTime="0.00" waitingCount="0" stopTime="0.00" timeLoss="12.28" rerouteNo="0" devices="tripinfo_rampFlow.9" vType="car" speedFactor="1.00" vaporized=""/>
    <tripinfo id="mainFlow.37" depart="36.20" departLane="main_0_1" departPos="5.10" departSpeed="30.01" departDelay="0.20" arrival="86.40" arrivalLane="main_1b_1" arrivalPos="596.00" arrivalSpeed="29.86" duration="50.20" routeLength="1494.90" waitingTime="0.00" waitingCount="0" stopTime="0.00" timeLoss="0.22" rerouteNo="0" devices="tripinfo_mainFlow.37" vType="car" speedFactor="0.90" vaporized=""/>
    <tripinfo id="mainFlow.32" depart="31.20" departLane="main_0_0" departPos="5.10" departSpeed="34.34" departDelay="0.06" arrival="87.40" arrivalLane="main_1b_0" arrivalPos="596.00" arrivalSpeed="30.65" duration="56.20" routeLength="1494.90" waitingTime="0.00" waitingCount="0" stopTime="0.00" timeLoss="12.55" rerouteNo="0" devices="tripinfo_mainFlow.32" vType="car" speedFactor="1.03" vaporized=""/>
    <tripinfo id="mainFlow.34" depart="33.20" departLane="main_0_0" departPos="5.10" departSpeed="32.94" departDelay="0.12" arrival="87.60" arrivalLane="main_1b_1" arrivalPos="596.00" arrivalSpeed="32.14" duration="54.40" routeLength="1494.90" waitingTime="0.00" waitingCount="0" stopTime="0.00" timeLoss="11.07" rerouteNo="0" devices="tripinfo_mainFlow.34" vType="car" speedFactor="1.04" vaporized=""/>
    <tripinfo id="rampFlow.10" depart="40.00" departLane="ramp_0_0" departPos="5.10" departSpeed="22.59" departDelay="0.00" arrival="88.60" arrivalLane="main_1b_0" arrivalPos="596.00" arrivalSpeed="32.44" duration="48.60" routeLength="1146.27" waitingTime="0.00" waitingCount="0" stopTime="0.00" timeLoss="12.12" rerouteNo="0" devices="tripinfo_rampFlow.10" vType="car" speedFactor="1.02" vaporized=""/>
    <tripinfo id="mainFlow.41" depart="40.00" departLane="main_0_1" departPos="5.10" departSpeed="31.05" departDelay="0.11" arrival="88.80" arrivalLane="main_1b_1" arrivalPos="596.00" arrivalSpeed="33.77" duration="48.80" routeLength="1494.90" waitingTime="0.00" waitingCount="0" stopTime="0.00" timeLoss="9.39" rerouteNo="0" devices="tripinfo_mainFlow.41" vType="car" speedFactor="1.17" vaporized=""/>
    <tripinfo id="mainFlow.43" depart="42.00" departLane="main_0_1" departPos="5.10" departSpeed="33.07" departDelay="0.16" arrival="90.00" arrivalLane="main_1b_1" arrivalPos="596.00" arrivalSpeed="33.35" duration="48.00" routeLength="1494.90" waitingTime="0.00" waitingCount="0" stopTime="0.00" timeLoss="3.23" rerouteNo="0" devices="tripinfo_mainFlow.43" vType="car" speedFactor="1.00" vaporized=""/>
    <tripinfo id="mainFlow.39" depart="38.00" departLane="main_0_1" departPos="5.10" departSpeed="28.34" departDelay="0.05" arrival="91.20" arrivalLane="main_1b_0" arrivalPos="596.00" arrivalSpeed="28.21" duration="53.20" routeLength="1494.90" waitingTime="0.00" waitingCount="0" stopTime="0.00" timeLoss="0.27" rerouteNo="0" devices="tripinfo_mainFlow.39" vType="car" speedFactor="0.85" vaporized=""/>
    <tripinfo id="mainFlow.38" depart="37.00" departLane="main_0_0" departPos="5.10" departSpeed="29.23" departDelay="0.03" arrival="92.40" arrivalLane="main_1b_1" arrivalPos="596.00" arrivalSpeed="29.19" duration="55.40" routeLength="1494.90" waitingTime="0.00" waitingCount="0" stopTime="0.00" timeLoss="4.12" rerouteNo="0" devices="tripinfo_mainFlow.38" vType="car" speedFactor="0.88" vaporized=""/>
    <tripinfo id="rampFlow.11" depart="44.00" departLane="ramp_0_0" departPos="5.10" departSpeed="25.39" departDelay="0.00" arrival="92.40" arrivalLane="main_1b_0" arrivalPos="596.00" arrivalSpeed="30.29" duration="48.40" routeLength="1146.27" waitingTime="0.00" waitingCount="0" stopTime="0.00" timeLoss="15.83" rerouteNo="0" devices="tripinfo_rampFlow.11" vType="car" speedFactor="1.14" vaporized=""/>
    <tripinfo id="mainFlow.45" depart="43.80" departLane="main_0_1" departPos="5.10" departSpeed="29.96" departDelay="0.02" arrival="94.00" arrivalLane="main_1b_1" arrivalPos="596.00" arrivalSpeed="29.83" duration="50.20" routeLength="1494.90" waitingTime="0.00" waitingCount="0" stopTime="0.00" timeLoss="0.21" rerouteNo="0" devices="tripinfo_mainFlow.45" vType="car" speedFactor="0.90" vaporized=""/>
    <tripinfo id="mainFlow.40" depart="39.00" departLane="main_0_0" departPos="5.10" departSpeed="28.49" departDelay="0.08" arrival="94.20" arrivalLane="main_1b_0" arrivalPos="596.00" arrivalSpeed="28.24" duration="55.20" routeLength="1494.90" waitingTime="0.00" waitingCount="0" stopTime="0.00" timeLoss="2.67" rerouteNo="0" devices="tripinfo_mainFlow.40" vType="car" speedFactor="0.85" vaporized=""/>
    <tripinfo id="mainFlow.47" depart="45.80" departLane="main_0_1" departPos="5.10" departSpeed="32.31" departDelay="0.07" arrival="95.20" arrivalLane="main_1b_1" arrivalPos="596.00" arrivalSpeed="32.08" duration="49.40" routeLength="1494.90" waitingTime="0.00" waitingCount="0" stopTime="0.00" timeLoss="3.07" rerouteNo="0" devices="tripinfo_mainFlow.47" vType="car" speedFactor="0.97" vaporized=""/>
    <tripinfo id="rampFlow.12" depart="48.00" departLane="ramp_0_0" departPos="5.10" departSpeed="22.57" departDelay="0.00" arrival="95.60" arrivalLane="main_1b_0" arrivalPos="596.00" arrivalSpeed="31.84" duration="47.60" routeLength="1146.27" waitingTime="0.00" waitingCount="0" stopTime="0.00" timeLoss="10.98" rerouteNo="0" devices="tripinfo_rampFlow.12" vType="car" speedFactor="1.02" vaporized=""/>
    <tripinfo id="mainFlow.49" depart="47.80" departLane="main_0_1" departPos="5.10" departSpeed="35.00" departDelay="0.12" arrival="96.40" arrivalLane="main_1b_1" arrivalPos="596.00" arrivalSpeed="33.96" duration="48.60" routeLength="1494.90" waitingTime="0.00" waitingCount="0" stopTime="0.00" timeLoss="8.46" rerouteNo="0" devices="tripinfo_mainFlow.49" vType="car" speedFactor="1.12" vaporized=""/>
    <tripinfo id="mainFlow.42" depart="41.00" departLane="main_0_0" departPos="5.10" departSpeed="30.88" departDelay="0.13" arrival="96.80" arrivalLane="main_1b_0" arrivalPos="596.00" arrivalSpeed="33.39" duration="55.80" routeLength="1494.90" waitingTime="0.00" waitingCount="0" stopTime="0.00" timeLoss="14.78" rerouteNo="0" devices="tripinfo_mainFlow.42" vType="car" speedFactor="1.10" vaporized=""/>
    <tripinfo id="mainFlow.51" depart="49.80" departLane="main_0_1" departPos="5.10" departSpeed="31.25" departDelay="0.18" arrival="98.00" arrivalLane="main_1b_1" arrivalPos="596.00" arrivalSpeed="31.02" duration="48.20" routeLength="1494.90" waitingTime="0.00" waitingCount="0" stopTime="0.00" timeLoss="0.21" rerouteNo="0" devices="tripinfo_mainFlow.51" vType="car" speedFactor="0.94" vaporized=""/>
    <tripinfo id="mainFlow.44" depart="43.00" departLane="main_0_0" departPos="5.10" departSpeed="33.08" departDelay="0.19" arrival="98.20" arrivalLane="main_1b_0" arrivalPos="596.00" arrivalSpeed="31.61" duration="55.20" routeLength="1494.90" waitingTime="0.00" waitingCount="0" stopTime="0.00" timeLoss="10.01" rerouteNo="0" devices="tripinfo_mainFlow.44" vType="car" speedFactor="1.00" vaporized=""/>
    <tripinfo id="rampFlow.13" depart="52.00" departLane="ramp_0_0" departPos="5.10" departSpeed="20.32" departDelay="0.00" arrival="99.40" arrivalLane="main_1b_1" arrivalPos="596.00" arrivalSpeed="30.38" duration="47.40" routeLength="1146.27" waitingTime="0.00" waitingCount="0" stopTime="0.00" timeLoss="6.93" rerouteNo="0" devices="tripinfo_rampFlow.13" vType="car" speedFactor="0.91" vaporized=""/>
    <tripinfo id="mainFlow.46" depart="44.80" departLane="main_0_0" departPos="5.10" departSpeed="34.12" departDelay="0.04" arrival="100.60" arrivalLane="main_1b_0" arrivalPos="596.00" arrivalSpeed="32.71" duration="55.80" routeLength="1494.90" waitingTime="0.00" waitingCount="0" stopTime="0.00" timeLoss="11.87" rerouteNo="0" devices="tripinfo_mainFlow.46" vType="car" speedFactor="1.02" vaporized=""/>
    <tripinfo id="mainFlow.53" depart="51.60" departLane="main_0_1" departPos="5.10" departSpeed="30.22" departDelay="0.03" arrival="101.40" arrivalLane="main_1b_1" arrivalPos="596.00" arrivalSpeed="30.19" duration="49.80" routeLength="1494.90" waitingTime="0.00" waitingCount="0" stopTime="0.00" timeLoss="0.21" rerouteNo="0" devices="tripinfo_mainFlow.53" vType="car" speedFactor="0.91" vaporized=""/>
    <tripinfo id="mainFlow.48" depart="46.80" departLane="main_0_0" departPos="5.10" departSpeed="32.93" departDelay="0.10" arrival="102.60" arrivalLane="main_1b_0" arrivalPos="596.00" arrivalSpeed="32.49" duration="55.80" routeLength="1494.90" waitingTime="0.00" waitingCount="0" stopTime="0.00" timeLoss="14.23" rerouteNo="0" devices="tripinfo_mainFlow.48" vType="car" speedFactor="1.08" vaporized=""/>
    <tripinfo id="mainFlow.55" depart="53.60" departLane="main_0_1" departPos="5.10" departSpeed="32.96" departDelay="0.09" arrival="102.60" arrivalLane="main_1b_1" arrivalPos="596.00" arrivalSpeed="32.41" duration="49.00" routeLength="1494.90" waitingTime="0.00" waitingCount="0" stopTime="0.00" timeLoss="5.04" rerouteNo="0" devices="tripinfo_mainFlow.55" vType="car" speedFactor="1.02" vaporized=""/>
    <tripinfo id="mainFlow.57" depart="55.60" departLane="main_0_1" departPos="5.10" departSpeed="32.43" departDelay="0.14" arrival="103.80" arrivalLane="main_1b_1" arrivalPos="596.00" arrivalSpeed="32.29" duration="48.20" routeLength="1494.90" waitingTime="0.00" waitingCount="0" stopTime="0.00" timeLoss="2.03" rerouteNo="0" devices="tripinfo_mainFlow.57" vType="car" speedFactor="0.97" vaporized=""/>
    <tripinfo id="rampFlow.14" depart="56.00" departLane="ramp_0_0" departPos="5.10" departSpeed="20.89" departDelay="0.00" arrival="103.80" arrivalLane="main_1b_0" arrivalPos="596.00" arrivalSpeed="31.19" duration="47.80" routeLength="1146.27" waitingTime="0.00" waitingCount="0" stopTime="0.00" timeLoss="8.42" rerouteNo="0" devices="tripinfo_rampFlow.14" vType="car" speedFactor="0.94" vaporized=""/>
    <tripinfo id="mainFlow.50" depart="48.80" departLane="main_0_0" departPos="5.10" departSpeed="32.90" departDelay="0.15" arrival="105.00" arrivalLane="main_1b_0" arrivalPos="596.00" arrivalSpeed="32.74" duration="56.20" routeLength="1494.90" waitingTime="0.00" waitingCount="0" stopTime="0.00" timeLoss="10.67" rerouteNo="0" devices="tripinfo_mainFlow.50" vType="car" speedFactor="0.99" vaporized=""/>
    <tripinfo id="mainFlow.59" depart="57.60" departLane="main_0_1" departPos="5.10" departSpeed="31.83" departDelay="0.19" arrival="105.20" arrivalLane="main_1b_1" arrivalPos="596.00" arrivalSpeed="31.74" duration="47.60" routeLength="1494.90" waitingTime="0.00" waitingCount="0" stopTime="0.00" timeLoss="0.49" rerouteNo="0" devices="tripinfo_mainFlow.59" vType="car" speedFactor="0.96" vaporized=""/>
    <tripinfo id="mainFlow.61" depart="59.40" departLane="main_0_1" departPos="5.10" departSpeed="33.94" departDelay="0.05" arrival="106.40" arrivalLane="main_1b_1" arrivalPos="596.00" arrivalSpeed="33.70" duration="47.00" routeLength="1494.90" waitingTime="0.00" waitingCount="0" stopTime="0.00" timeLoss="3.43" rerouteNo="0" devices="tripinfo_mainFlow.61" vType="car" speedFactor="1.03" vaporized=""/>