<?xml version="1.0" encoding="UTF-8"?>

<!-- generated on 2025-10-31 15:19:35 by Eclipse SUMO sumo Version 1.24.0
<sumoConfiguration xmlns:xsi="http://www.w3.org/2001/XMLSchema-instance" xsi:noNamespaceSchemaLocation="http://sumo.dlr.de/xsd/sumoConfiguration.xsd">

    <input>
        <net-file value="ramp.net.xml"/>
        <route-files value="ramp.rou.xml"/>
    </input>

    <output>
        <summary-output value="output/summary.xml"/>
        <tripinfo-output value="output/tripinfo.xml"/>
        <edgedata-output value="output/edgeData.xml"/>
    </output>

    <time>
        <begin value="0"/>
        <end value="900"/>
        <step-length value="0.2"/>
    </time>

    <report>
        <no-step-log value="true"/>
    </report>

</sumoConfiguration>
-->

<tripinfos xmlns:xsi="http://www.w3.org/2001/XMLSchema-instance" xsi:noNamespaceSchemaLocation="http://sumo.dlr.de/xsd/tripinfo_file.xsd">
    <tripinfo id="mainFlow.0" depart="0.00" departLane="main_0_0" departPos="5.10" departSpeed="35.33" departDelay="0.00" arrival="42.60" arrivalLane="main_1b_0" arrivalPos="596.00" arrivalSpeed="35.16" duration="42.60" routeLength="1494.90" waitingTime="0.00" waitingCount="0" stopTime="0.00" timeLoss="0.15" rerouteNo="0" devices="tripinfo_mainFlow.0" vType="car" speedFactor="1.06" vaporized=""/>
    <tripinfo id="mainFlow.3" depart="6.00" departLane="main_0_1" departPos="5.10" departSpeed="36.09" departDelay="0.00" arrival="47.80" arrivalLane="main_1b_1" arrivalPos="596.00" arrivalSpeed="36.00" duration="41.80" routeLength="1494.90" waitingTime="0.00" waitingCount="0" stopTime="0.00" timeLoss="0.21" rerouteNo="0" devices="tripinfo_mainFlow.3" vType="car" speedFactor="1.08" vaporized=""/>
    <tripinfo id="mainFlow.2" depart="4.00" departLane="main_0_0" departPos="5.10" departSpeed="33.68" departDelay="0.00" arrival="49.60" arrivalLane="main_1b_1" arrivalPos="596.00" arrivalSpeed="33.57" duration="45.60" routeLength="1494.90" waitingTime="0.00" waitingCount="0" stopTime="0.00" timeLoss="1.19" rerouteNo="0" devices="tripinfo_mainFlow.2" vType="car" speedFactor="1.01" vaporized=""/>
    <tripinfo id="mainFlow.1" depart="2.00" departLane="main_0_1" departPos="5.10" departSpeed="31.27" departDelay="0.00" arrival="50.20" arrivalLane="main_1b_0" arrivalPos="596.00" arrivalSpeed="31.17" duration="48.20" routeLength="1494.90" waitingTime="0.00" waitingCount="0" stopTime="0.00" timeLoss="0.21" rerouteNo="0" devices="tripinfo_mainFlow.1" vType="car" speedFactor="0.94" vaporized=""/>
    <tripinfo id="mainFlow.4" depart="8.00" departLane="main_0_0" departPos="5.10" departSpeed="34.34" departDelay="0.00" arrival="51.80" arrivalLane="main_1b_0" arrivalPos="596.00" arrivalSpeed="34.11" duration="43.80" routeLength="1494.90" waitingTime="0.00" waitingCount="0" stopTime="0.00" timeLoss="0.20" rerouteNo="0" devices="tripinfo_mainFlow.4" vType="car" speedFactor="1.03" vaporized=""/>
    <tripinfo id="mainFlow.6" depart="12.00" departLane="main_0_0" departPos="5.10" departSpeed="34.86" departDelay="0.00" arrival="56.80" arrivalLane="main_1b_1" arrivalPos="596.00" arrivalSpeed="34.62" duration="44.80" routeLength="1494.90" waitingTime="0.00" waitingCount="0" stopTime="0.00" timeLoss="1.83" rerouteNo="0" devices="tripinfo_mainFlow.6" vType="car" speedFactor="1.05" vaporized=""/>
    <tripinfo id="mainFlow.8" depart="16.00" departLane="main_0_1" departPos="5.10" departSpeed="31.26" departDelay="0.00" arrival="64.20" arrivalLane="main_1b_1" arrivalPos="596.00" arrivalSpeed="31.11" duration="48.20" routeLength="1494.90" waitingTime="0.00" waitingCount="0" stopTime="0.00" timeLoss="0.21" rerouteNo="0" devices="tripinfo_mainFlow.8" vType="car" speedFactor="0.94" vaporized=""/>
    <tripinfo id="mainFlow.5" depart="10.00" departLane="main_0_1" departPos="5.10" departSpeed="27.70" departDelay="0.00" arrival="64.40" arrivalLane="main_1b_0" arrivalPos="596.00" arrivalSpeed="27.66" duration="54.40" routeLength="1494.90" waitingTime="0.00" waitingCount="0" stopTime="0.00" timeLoss="0.25" rerouteNo="0" devices="tripinfo_mainFlow.5" vType="car" speedFactor="0.83" vaporized=""/>
    <tripinfo id="mainFlow.10" depart="20.00" departLane="main_0_1" departPos="5.10" departSpeed="36.35" departDelay="0.00" arrival="65.40" arrivalLane="main_1b_1" arrivalPos="596.00" arrivalSpeed="33.45" duration="45.40" routeLength="1494.90" waitingTime="0.00" waitingCount="0" stopTime="0.00" timeLoss="4.16" rerouteNo="0" devices="tripinfo_mainFlow.10" vType="car" speedFactor="1.09" vaporized=""/>
    <tripinfo id="mainFlow.7" depart="14.00" departLane="main_0_0" departPos="5.10" departSpeed="29.53" departDelay="0.00" arrival="65.60" arrivalLane="main_1b_0" arrivalPos="596.00" arrivalSpeed="29.51" duration="51.60" routeLength="1494.90" waitingTime="0.00" waitingCount="0" stopTime="0.00" timeLoss="0.90" rerouteNo="0" devices="tripinfo_mainFlow.7" vType="car" speedFactor="0.89" vaporized=""/>
    <tripinfo id="mainFlow.12" depart="24.00" departLane="main_0_1" departPos="5.10" departSpeed="34.90" departDelay="0.00" arrival="67.20" arrivalLane="main_1b_1" arrivalPos="596.00" arrivalSpeed="34.74" duration="43.20" routeLength="1494.90" waitingTime="0.00" waitingCount="0" stopTime="0.00" timeLoss="0.19" rerouteNo="0" devices="tripinfo_mainFlow.12" vType="car" speedFactor="1.05" vaporized=""/>
    <tripinfo id="mainFlow.13" depart="26.00" departLane="main_0_0" departPos="5.10" departSpeed="37.43" departDelay="0.00" arrival="68.40" arrivalLane="main_1b_1" arrivalPos="596.00" arrivalSpeed="37.42" duration="42.40" routeLength="1494.90" waitingTime="0.00" waitingCount="0" stopTime="0.00" timeLoss="2.30" rerouteNo="0" devices="tripinfo_mainFlow.13" vType="car" speedFactor="1.12" vaporized=""/>
    <tripinfo id="mainFlow.11" depart="22.00" departLane="main_0_0" departPos="5.10" departSpeed="34.21" departDelay="0.00" arrival="69.40" arrivalLane="main_1b_1" arrivalPos="596.00" arrivalSpeed="34.03" duration="47.40" routeLength="1494.90" waitingTime="0.00" waitingCount="0" stopTime="0.00" timeLoss="3.68" rerouteNo="0" devices="tripinfo_mainFlow.11" vType="car" speedFactor="1.03" vaporized=""/>
    <tripinfo id="mainFlow.9" depart="18.00" departLane="main_0_0" departPos="5.10" departSpeed="28.56" departDelay="0.00" arrival="70.60" arrivalLane="main_1b_0" arrivalPos="596.00" arrivalSpeed="28.34" duration="52.60" routeLength="1494.90" waitingTime="0.00" waitingCount="0" stopTime="0.00" timeLoss="0.24" rerouteNo="0" devices="tripinfo_mainFlow.9" vType="car" speedFactor="0.86" vaporized=""/>
    <tripinfo id="mainFlow.14" depart="28.00" departLane="main_0_1" departPos="5.10" departSpeed="33.04" departDelay="0.00" arrival="73.60" arrivalLane="main_1b_0" arrivalPos="596.00" arrivalSpeed="32.88" duration="45.60" routeLength="1494.90" waitingTime="0.00" waitingCount="0" stopTime="0.00" timeLoss="0.17" rerouteNo="0" devices="tripinfo_mainFlow.14" vType="car" speedFactor="0.99" vaporized=""/>
    <tripinfo id="mainFlow.15" depart="30.00" departLane="main_0_0" departPos="5.10" departSpeed="30.89" departDelay="0.00" arrival="78.60" arrivalLane="main_1b_0" arrivalPos="596.00" arrivalSpeed="30.88" duration="48.60" routeLength="1494.90" waitingTime="0.00" waitingCount="0" stopTime="0.00" timeLoss="0.20" rerouteNo="0" devices="tripinfo_mainFlow.15" vType="car" speedFactor="0.93" vaporized=""/>
    <tripinfo id="mainFlow.17" depart="34.00" departLane="main_0_0" departPos="5.10" departSpeed="31.38" departDelay="0.00" arrival="82.20" arrivalLane="main_1b_1" arrivalPos="596.00" arrivalSpeed="31.34" duration="48.20" routeLength="1494.90" waitingTime="0.00" waitingCount="0" stopTime="0.00" timeLoss="0.45" rerouteNo="0" devices="tripinfo_mainFlow.17" vType="car" speedFactor="0.94" vaporized=""/>
    <tripinfo id="mainFlow.16" depart="32.00" departLane="main_0_1" departPos="5.10" departSpeed="29.28" departDelay="0.00" arrival="83.40" arrivalLane="main_1b_0" arrivalPos="596.00" arrivalSpeed="29.12" duration="51.40" routeLength="1494.90" waitingTime="0.00" waitingCount="0" stopTime="0.00" timeLoss="0.22" rerouteNo="0" devices="tripinfo_mainFlow.16" vType="car" speedFactor="0.88" vaporized=""/>
    <tripinfo id="mainFlow.18" depart="36.00" departLane="main_0_1" departPos="5.10" departSpeed="31.20" departDelay="0.00" arrival="84.20" arrivalLane="main_1b_1" arrivalPos="596.00" arrivalSpeed="31.20" duration="48.20" routeLength="1494.90" waitingTime="0.00" waitingCount="0" stopTime="0.00" timeLoss="0.20" rerouteNo="0" devices="tripinfo_mainFlow.18" vType="car" speedFactor="0.94" vaporized=""/>
    <tripinfo id="mainFlow.19" depart="38.00" departLane="main_0_0" departPos="5.10" departSpeed="38.00" departDelay="0.00" arrival="85.40" arrivalLane="main_1b_1" arrivalPos="596.00" arrivalSpeed="33.36" duration="47.40" routeLength="1494.90" waitingTime="0.00" waitingCount="0" stopTime="0.00" timeLoss="8.01" rerouteNo="0" devices="tripinfo_mainFlow.19" vType="car" speedFactor="1.16" vaporized=""/>
    <tripinfo id="mainFlow.20" depart="40.00" departLane="main_0_0" departPos="5.10" departSpeed="33.93" departDelay="0.00" arrival="86.60" arrivalLane="main_1b_0" arrivalPos="596.00" arrivalSpeed="33.77" duration="46.60" routeLength="1494.90" waitingTime="0.00" waitingCount="0" stopTime="0.00" timeLoss="2.44" rerouteNo="0" devices="tripinfo_mainFlow.20" vType="car" speedFactor="1.02" vaporized=""/>
    <tripinfo id="mainFlow.21" depart="42.00" departLane="main_0_1" departPos="5.10" departSpeed="33.67" departDelay="0.00" arrival="86.80" arrivalLane="main_1b_1" arrivalPos="596.00" arrivalSpeed="33.53" duration="44.80" routeLength="1494.90" waitingTime="0.00" waitingCount="0" stopTime="0.00" timeLoss="0.36" rerouteNo="0" devices="tripinfo_mainFlow.21" vType="car" speedFactor="1.01" vaporized=""/>
    <tripinfo id="mainFlow.22" depart="44.00" departLane="main_0_0" departPos="5.10" departSpeed="32.50" departDelay="0.00" arrival="90.20" arrivalLane="main_1b_0" arrivalPos="596.00" arrivalSpeed="32.35" duration="46.20" routeLength="1494.90" waitingTime="0.00" waitingCount="0" stopTime="0.00" timeLoss="0.19" rerouteNo="0" devices="tripinfo_mainFlow.22" vType="car" speedFactor="0.97" vaporized=""/>
    <tripinfo id="mainFlow.23" depart="46.00" departLane="main_0_1" departPos="5.10" departSpeed="29.65" departDelay="0.00" arrival="96.80" arrivalLane="main_1b_0" arrivalPos="596.00" arrivalSpeed="29.50" duration="50.80" routeLength="1494.90" waitingTime="0.00" waitingCount="0" stopTime="0.00" timeLoss="0.20" rerouteNo="0" devices="tripinfo_mainFlow.23" vType="car" speedFactor="0.89" vaporized=""/>
    <tripinfo id="mainFlow.25" depart="50.00" departLane="main_0_1" departPos="5.10" departSpeed="29.08" departDelay="0.00" arrival="101.80" arrivalLane="main_1b_1" arrivalPos="596.00" arrivalSpeed="28.91" duration="51.80" routeLength="1494.90" waitingTime="0.00" waitingCount="0" stopTime="0.00" timeLoss="0.23" rerouteNo="0" devices="tripinfo_mainFlow.25" vType="car" speedFactor="0.87" vaporized=""/>
    <tripinfo id="mainFlow.24" depart="48.00" departLane="main_0_0" departPos="5.10" departSpeed="27.52" departDelay="0.00" arrival="102.60" arrivalLane="main_1b_0" arrivalPos="596.00" arrivalSpeed="27.29" duration="54.60" routeLength="1494.90" waitingTime="0.00" waitingCount="0" stopTime="0.00" timeLoss="0.26" rerouteNo="0" devices="tripinfo_mainFlow.24" vType="car" speedFactor="0.83" vaporized=""/>
    <tripinfo id="mainFlow.27" depart="54.00" departLane="main_0_1" departPos="5.10" departSpeed="31.62" departDelay="0.00" arrival="103.00" arrivalLane="main_1b_1" arrivalPos="596.00" arrivalSpeed="31.42" duration="49.00" routeLength="1494.90" waitingTime="0.00" waitingCount="0" stopTime="0.00" timeLoss="1.62" rerouteNo="0" devices="tripinfo_mainFlow.27" vType="car" speedFactor="0.95" vaporized=""/>
    <tripinfo id="mainFlow.26" depart="52.00" departLane="main_0_0" departPos="5.10" departSpeed="30.57" departDelay="0.00" arrival="104.00" arrivalLane="main_1b_0" arrivalPos="596.00" arrivalSpeed="30.24" duration="52.00" routeLength="1494.90" waitingTime="0.00" waitingCount="0" stopTime="0.00" timeLoss="2.94" rerouteNo="0" devices="tripinfo_mainFlow.26" vType="car" speedFactor="0.92" vaporized=""/>
    <tripinfo id="mainFlow.28" depart="56.00" departLane="main_0_0" departPos="5.10" departSpeed="37.72" departDelay="0.00" arrival="104.20" arrivalLane="main_1b_1" arrivalPos="596.00" arrivalSpeed="33.12" duration="48.20" routeLength="1494.90" waitingTime="0.00" waitingCount="0" stopTime="0.00" timeLoss="8.48" rerouteNo="0" devices="tripinfo_mainFlow.28" vType="car" speedFactor="1.13" vaporized=""/>
    <tripinfo id="mainFlow.30" depart="60.00" departLane="main_0_1" departPos="5.10" departSpeed="38.00" departDelay="0.00" arrival="105.40" arrivalLane="main_1b_1" arrivalPos="596.00" arrivalSpeed="34.91" duration="45.40" routeLength="1494.90" waitingTime="0.00" waitingCount="0" stopTime="0.00" timeLoss="5.94" rerouteNo="0" devices="tripinfo_mainFlow.30" vType="car" speedFactor="1.18" vaporized=""/>
    <tripinfo id="rampFlow.0" depart="60.00" departLane="ramp_0_0" departPos="5.10" departSpeed="25.65" departDelay="0.00" arrival="105.40" arrivalLane="main_1b_0" arrivalPos="596.00" arrivalSpeed="33.48" duration="45.40" routeLength="1146.27" waitingTime="0.00" waitingCount="0" stopTime="0.00" timeLoss="12.86" rerouteNo="0" devices="tripinfo_rampFlow.0" vType="car" speedFactor="1.15" vaporized=""/>
    <tripinfo id="mainFlow.32" depart="64.00" departLane="main_0_1" departPos="5.10" departSpeed="38.00" departDelay="0.00" arrival="106.60" arrivalLane="main_1b_1" arrivalPos="596.00" arrivalSpeed="36.63" duration="42.60" routeLength="1494.90" waitingTime="0.00" waitingCount="0" stopTime="0.00" timeLoss="3.16" rerouteNo="0" devices="tripinfo_mainFlow.32" vType="car" speedFactor="1.17" vaporized=""/>
    <tripinfo id="mainFlow.29" depart="58.00" departLane="main_0_0" departPos="5.10" departSpeed="31.04" departDelay="0.00" arrival="106.80" arrivalLane="main_1b_0" arrivalPos="596.00" arrivalSpeed="30.87" duration="48.80" routeLength="1494.90" waitingTime="0.00" waitingCount="0" stopTime="0.00" timeLoss="0.52" rerouteNo="0" devices="tripinfo_mainFlow.29" vType="car" speedFactor="0.93" vaporized=""/>
    <tripinfo id="mainFlow.31" depart="62.00" departLane="main_0_0" departPos="5.10" departSpeed="33.50" departDelay="0.00" arrival="108.00" arrivalLane="main_1b_0" arrivalPos="596.00" arrivalSpeed="33.47" duration="46.00" routeLength="1494.90" waitingTime="0.00" waitingCount="0" stopTime="0.00" timeLoss="1.33" rerouteNo="0" devices="tripinfo_mainFlow.31" vType="car" speedFactor="1.01" vaporized=""/>
    <tripinfo id="rampFlow.1" depart="66.00" departLane="ramp_0_0" departPos="5.10" departSpeed="22.66" departDelay="0.00" arrival="109.40" arrivalLane="main_1b_0" arrivalPos="596.00" arrivalSpeed="33.93" duration="43.40" routeLength="1146.27" waitingTime="0.00" waitingCount="0" stopTime="0.00" timeLoss="7.07" rerouteNo="0" devices="tripinfo_rampFlow.1" vType="car" speedFactor="1.02" vaporized=""/>
    <tripinfo id="mainFlow.33" depart="66.00" departLane="main_0_0" departPos="5.10" departSpeed="33.16" departDelay="0.00" arrival="111.60" arrivalLane="main_1b_1" arrivalPos="596.00" arrivalSpeed="32.96" duration="45.60" routeLength="1494.90" waitingTime="0.00" waitingCount="0" stopTime="0.00" timeLoss="0.39" rerouteNo="0" devices="tripinfo_mainFlow.33" vType="car" speedFactor="0.99" vaporized=""/>
    <tripinfo id="mainFlow.35" depart="70.00" departLane="main_0_0" departPos="5.10" departSpeed="38.00" departDelay="0.00" arrival="113.00" arrivalLane="main_1b_1" arrivalPos="596.00" arrivalSpeed="36.98" duration="43.00" routeLength="1494.90" waitingTime="0.00" waitingCount="0" stopTime="0.00" timeLoss="3.56" rerouteNo="0" devices="tripinfo_mainFlow.35" vType="car" speedFactor="1.18" vaporized=""/>
    <tripinfo id="mainFlow.36" depart="72.00" departLane="main_0_0" departPos="5.10" departSpeed="36.74" departDelay="0.00" arrival="114.20" arrivalLane="main_1b_1" arrivalPos="596.00" arrivalSpeed="36.53" duration="42.20" routeLength="1494.90" waitingTime="0.00" waitingCount="0" stopTime="0.00" timeLoss="1.51" rerouteNo="0" devices="tripinfo_mainFlow.36" vType="car" speedFactor="1.10" vaporized=""/>
    <tripinfo id="mainFlow.34" depart="68.00" departLane="main_0_1" departPos="5.10" departSpeed="32.44" departDelay="0.00" arrival="114.40" arrivalLane="main_1b_0" arrivalPos="596.00" arrivalSpeed="32.23" duration="46.40" routeLength="1494.90" waitingTime="0.00" waitingCount="0" stopTime="0.00" timeLoss="0.19" rerouteNo="0" devices="tripinfo_mainFlow.34" vType="car" speedFactor="0.97" vaporized=""/>
    <tripinfo id="mainFlow.37" depart="74.00" departLane="main_0_1" departPos="5.10" departSpeed="34.34" departDelay="0.00" arrival="117.80" arrivalLane="main_1b_1" arrivalPos="596.00" arrivalSpeed="34.18" duration="43.80" routeLength="1494.90" waitingTime="0.00" waitingCount="0" stopTime="0.00" timeLoss="0.19" rerouteNo="0" devices="tripinfo_mainFlow.37" vType="car" speedFactor="1.03" vaporized=""/>
    <tripinfo id="rampFlow.2" depart="72.00" departLane="ramp_0_0" departPos="5.10" departSpeed="20.01" departDelay="0.00" arrival="119.20" arrivalLane="main_1b_0" arrivalPos="596.00" arrivalSpeed="29.79" duration="47.20" routeLength="1146.27" waitingTime="0.00" waitingCount="0" stopTime="0.00" timeLoss="6.20" rerouteNo="0" devices="tripinfo_rampFlow.2" vType="car" speedFactor="0.90" vaporized=""/>
    <tripinfo id="mainFlow.39" depart="78.00" departLane="main_0_1" departPos="5.10" departSpeed="36.39" departDelay="0.00" arrival="119.40" arrivalLane="main_1b_1" arrivalPos="596.00" arrivalSpeed="36.25" duration="41.40" routeLength="1494.90" waitingTime="0.00" waitingCount="0" stopTime="0.00" timeLoss="0.16" rerouteNo="0" devices="tripinfo_mainFlow.39" vType="car" speedFactor="1.09" vaporized=""/>
    <tripinfo id="rampFlow.3" depart="78.00" departLane="ramp_0_0" departPos="5.10" departSpeed="23.06" departDelay="0.00" arrival="121.00" arrivalLane="main_1b_0" arrivalPos="596.00" arrivalSpeed="34.59" duration="43.00" routeLength="1146.27" waitingTime="0.00" waitingCount="0" stopTime="0.00" timeLoss="7.37" rerouteNo="0" devices="tripinfo_rampFlow.3" vType="car" speedFactor="1.04" vaporized=""/>
    <tripinfo id="mainFlow.38" depart="76.00" departLane="main_0_0" departPos="5.10" departSpeed="31.90" departDelay="0.00" arrival="123.80" arrivalLane="main_1b_1" arrivalPos="596.00" arrivalSpeed="31.72" duration="47.80" routeLength="1494.90" waitingTime="0.00" waitingCount="0" stopTime="0.00" timeLoss="0.79" rerouteNo="0" devices="tripinfo_mainFlow.38" vType="car" speedFactor="0.96" vaporized=""/>
    <tripinfo id="mainFlow.40" depart="80.00" departLane="main_0_0" departPos="5.10" departSpeed="34.78" departDelay="0.00" arrival="125.00" arrivalLane="main_1b_0" arrivalPos="596.00" arrivalSpeed="34.51" duration="45.00" routeLength="1494.90" waitingTime="0.00" waitingCount="0" stopTime="0.00" timeLoss="1.88" rerouteNo="0" devices="tripinfo_mainFlow.40" vType="car" speedFactor="1.04" vaporized=""/>
    <tripinfo id="mainFlow.41" depart="82.00" departLane="main_0_1" departPos="5.10" departSpeed="36.26" departDelay="0.00" arrival="125.00" arrivalLane="main_1b_1" arrivalPos="596.00" arrivalSpeed="34.60" duration="43.00" routeLength="1494.90" waitingTime="0.00" waitingCount="0" stopTime="0.00" timeLoss="1.72" rerouteNo="0" devices="tripinfo_mainFlow.41" vType="car" speedFactor="1.09" vaporized=""/>
    <tripinfo id="mainFlow.42" depart="84.00" departLane="main_0_0" departPos="5.10" departSpeed="33.24" departDelay="0.00" arrival="129.20" arrivalLane="main_1b_1" arrivalPos="596.00" arrivalSpeed="33.06" duration="45.20" routeLength="1494.90" waitingTime="0.00" waitingCount="0" stopTime="0.00" timeLoss="0.18" rerouteNo="0" devices="tripinfo_mainFlow.42" vType="car" speedFactor="1.00" vaporized=""/>
    <tripinfo id="rampFlow.5" depart="90.00" departLane="ramp_0_0" departPos="5.10" departSpeed="25.97" departDelay="0.00" arrival="130.80" arrivalLane="main_1b_1" arrivalPos="596.00" arrivalSpeed="37.52" duration="40.80" routeLength="1146.27" waitingTime="0.00" waitingCount="0" stopTime="0.00" timeLoss="8.35" rerouteNo="0" devices="tripinfo_rampFlow.5" vType="car" speedFactor="1.17" vaporized=""/>
    <tripinfo id="rampFlow.4" depart="84.00" departLane="ramp_0_0" departPos="5.10" departSpeed="20.01" departDelay="0.00" arrival="131.40" arrivalLane="main_1b_0" arrivalPos="596.00" arrivalSpeed="29.81" duration="47.40" routeLength="1146.27" waitingTime="0.00" waitingCount="0" stopTime="0.00" timeLoss="6.25" rerouteNo="0" devices="tripinfo_rampFlow.4" vType="car" speedFactor="0.90" vaporized=""/>
    <tripinfo id="mainFlow.43" depart="86.00" departLane="main_0_1" departPos="5.10" departSpeed="29.23" departDelay="0.00" arrival="137.40" arrivalLane="main_1b_1" arrivalPos="596.00" arrivalSpeed="29.17" duration="51.40" routeLength="1494.90" waitingTime="0.00" waitingCount="0" stopTime="0.00" timeLoss="0.23" rerouteNo="0" devices="tripinfo_mainFlow.43" vType="car" speedFactor="0.88" vaporized=""/>
    <tripinfo id="mainFlow.46" depart="92.00" departLane="main_0_0" departPos="5.10" departSpeed="33.89" departDelay="0.00" arrival="138.80" arrivalLane="main_1b_1" arrivalPos="596.00" arrivalSpeed="32.31" duration="46.80" routeLength="1494.90" waitingTime="0.00" waitingCount="0" stopTime="0.00" timeLoss="2.65" rerouteNo="0" devices="tripinfo_mainFlow.46" vType="car" speedFactor="1.02" vaporized=""/>
    <tripinfo id="mainFlow.47" depart="94.00" departLane="main_0_0" departPos="5.10" departSpeed="36.52" departDelay="0.00" arrival="140.00" arrivalLane="main_1b_1" arrivalPos="596.00" arrivalSpeed="34.16" duration="46.00" routeLength="1494.90" waitingTime="0.00" waitingCount="0" stopTime="0.00" timeLoss="5.04" rerouteNo="0" devices="tripinfo_mainFlow.47" vType="car" speedFactor="1.10" vaporized=""/>
    <tripinfo id="mainFlow.44" depart="88.00" departLane="main_0_0" departPos="5.10" departSpeed="28.34" departDelay="0.00" arrival="141.00" arrivalLane="main_1b_0" arrivalPos="596.00" arrivalSpeed="28.13" duration="53.00" routeLength="1494.90" waitingTime="0.00" waitingCount="0" stopTime="0.00" timeLoss="0.24" rerouteNo="0" devices="tripinfo_mainFlow.44" vType="car" speedFactor="0.85" vaporized=""/>
    <tripinfo id="mainFlow.48" depart="96.00" departLane="main_0_1" departPos="5.10" departSpeed="33.44" departDelay="0.00" arrival="141.40" arrivalLane="main_1b_1" arrivalPos="596.00" arrivalSpeed="33.21" duration="45.40" routeLength="1494.90" waitingTime="0.00" waitingCount="0" stopTime="0.00" timeLoss="0.61" rerouteNo="0" devices="tripinfo_mainFlow.48" vType="car" speedFactor="1.00" vaporized=""/>
    <tripinfo id="mainFlow.50" depart="100.00" departLane="main_0_1" departPos="5.10" departSpeed="38.00" departDelay="0.00" arrival="142.60" arrivalLane="main_1b_1" arrivalPos="596.00" arrivalSpeed="35.92" duration="42.60" routeLength="1494.90" waitingTime="0.00" waitingCount="0" stopTime="0.00" timeLoss="3.20" rerouteNo="0" devices="tripinfo_mainFlow.50" vType="car" speedFactor="1.14" vaporized=""/>
    <tripinfo id="mainFlow.45" depart="90.00" departLane="main_0_1" departPos="5.10" departSpeed="28.49" departDelay="0.00" arrival="143.40" arrivalLane="main_1b_0" arrivalPos="596.00" arrivalSpeed="28.34" duration="53.40" routeLength="1494.90" waitingTime="0.00" waitingCount="0" stopTime="0.00" timeLoss="0.84" rerouteNo="0" devices="tripinfo_mainFlow.45" vType="car" speedFactor="0.85" vaporized=""/>
    <tripinfo id="rampFlow.6" depart="96.00" departLane="ramp_0_0" departPos="5.10" departSpeed="22.13" departDelay="0.00" arrival="143.60" arrivalLane="main_1b_1" arrivalPos="596.00" arrivalSpeed="33.16" duration="47.60" routeLength="1146.27" waitingTime="0.00" waitingCount="0" stopTime="0.00" timeLoss="10.34" rerouteNo="0" devices="tripinfo_rampFlow.6" vType="car" speedFactor="1.00" vaporized=""/>
    <tripinfo id="mainFlow.49" depart="98.00" departLane="main_0_0" departPos="5.10" departSpeed="29.96" departDelay="0.00" arrival="148.20" arrivalLane="main_1b_1" arrivalPos="596.00" arrivalSpeed="29.93" duration="50.20" routeLength="1494.90" waitingTime="0.00" waitingCount="0" stopTime="0.00" timeLoss="0.22" rerouteNo="0" devices="tripinfo_mainFlow.49" vType="car" speedFactor="0.90" vaporized=""/>
    <tripinfo id="rampFlow.7" depart="102.00" departLane="ramp_0_0" departPos="5.10" departSpeed="21.54" departDelay="0.00" arrival="148.40" arrivalLane="main_1b_0" arrivalPos="596.00" arrivalSpeed="30.25" duration="46.40" routeLength="1146.27" waitingTime="0.00" waitingCount="0" stopTime="0.00" timeLoss="8.27" rerouteNo="0" devices="tripinfo_rampFlow.7" vType="car" speedFactor="0.97" vaporized=""/>
    <tripinfo id="mainFlow.52" depart="104.00" departLane="main_0_1" departPos="5.10" departSpeed="36.08" departDelay="0.00" arrival="149.40" arrivalLane="main_1b_1" arrivalPos="596.00" arrivalSpeed="32.29" duration="45.40" routeLength="1494.90" waitingTime="0.00" waitingCount="0" stopTime="0.00" timeLoss="3.95" rerouteNo="0" devices="tripinfo_mainFlow.52" vType="car" speedFactor="1.08" vaporized=""/>
    <tripinfo id="mainFlow.51" depart="102.00" departLane="main_0_0" departPos="5.10" departSpeed="34.12" departDelay="0.00" arrival="149.80" arrivalLane="main_1b_0" arrivalPos="596.00" arrivalSpeed="32.24" duration="47.80" routeLength="1494.90" waitingTime="0.00" waitingCount="0" stopTime="0.00" timeLoss="3.81" rerouteNo="0" devices="tripinfo_mainFlow.51" vType="car" speedFactor="1.02" vaporized=""/>
    <tripinfo id="mainFlow.53" depart="106.00" departLane="main_0_0" departPos="5.10" departSpeed="37.31" departDelay="0.00" arrival="150.60" arrivalLane="main_1b_1" arrivalPos="596.00" arrivalSpeed="34.03" duration="44.60" routeLength="1494.90" waitingTime="0.00" waitingCount="0" stopTime="0.00" timeLoss="4.51" rerouteNo="0" devices="tripinfo_mainFlow.53" vType="car" speedFactor="1.12" vaporized=""/>
    <tripinfo id="rampFlow.8" depart="108.00" departLane="ramp_0_0" departPos="5.10" departSpeed="21.93" departDelay="0.00" arrival="152.20" arrivalLane="main_1b_0" arrivalPos="596.00" arrivalSpeed="32.70" duration="44.20" routeLength="1146.27" waitingTime="0.00" waitingCount="0" stopTime="0.00" timeLoss="6.70" rerouteNo="0" devices="tripinfo_rampFlow.8" vType="car" speedFactor="0.99" vaporized=""/>
    <tripinfo id="mainFlow.54" depart="108.00" departLane="main_0_1" departPos="5.10" departSpeed="33.86" departDelay="0.00" arrival="152.40" arrivalLane="main_1b_1" arrivalPos="596.00" arrivalSpeed="33.62" duration="44.40" routeLength="1494.90" waitingTime="0.00" waitingCount="0" stopTime="0.00" timeLoss="0.19" rerouteNo="0" devices="tripinfo_mainFlow.54" vType="car" speedFactor="1.02" vaporized=""/>
    <tripinfo id="mainFlow.55" depart="110.00" departLane="main_0_0" departPos="5.10" departSpeed="31.25" departDelay="0.00" arrival="158.20" arrivalLane="main_1b_1" arrivalPos="596.00" arrivalSpeed="31.15" duration="48.20" routeLength="1494.90" waitingTime="0.00" waitingCount="0" stopTime="0.00" timeLoss="0.20" rerouteNo="0" devices="tripinfo_mainFlow.55" vType="car" speedFactor="0.94" vaporized=""/>
    <tripinfo id="mainFlow.58" depart="116.00" departLane="main_0_1" departPos="5.10" departSpeed="34.66" departDelay="0.00" arrival="159.60" arrivalLane="main_1b_1" arrivalPos="596.00" arrivalSpeed="34.51" duration="43.60" routeLength="1494.90" waitingTime="0.00" waitingCount="0" stopTime="0.00" timeLoss="0.43" rerouteNo="0" devices="tripinfo_mainFlow.58" vType="car" speedFactor="1.04" vaporized=""/>
    <tripinfo id="rampFlow.9" depart="114.00" departLane="ramp_0_0" departPos="5.10" departSpeed="20.32" departDelay="0.00" arrival="160.80" arrivalLane="main_1b_0" arrivalPos="596.00" arrivalSpeed="30.27" duration="46.80" routeLength="1146.27" waitingTime="0.00" waitingCount="0" stopTime="0.00" timeLoss="6.43" rerouteNo="0" devices="tripinfo_rampFlow.9" vType="car" speedFactor="0.91" vaporized=""/>
    <tripinfo id="mainFlow.56" depart="112.00" departLane="main_0_1" departPos="5.10" departSpeed="29.41" departDelay="0.00" arrival="163.60" arrivalLane="main_1b_0" arrivalPos="596.00" arrivalSpeed="29.30" duration="51.60" routeLength="1494.90" waitingTime="0.00" waitingCount="0" stopTime="0.00" timeLoss="0.69" rerouteNo="0" devices="tripinfo_mainFlow.56" vType="car" speedFactor="0.88" vaporized=""/>
    <tripinfo id="mainFlow.57" depart="114.00" departLane="main_0_0" departPos="5.10" departSpeed="30.22" departDelay="0.00" arrival="164.00" arrivalLane="main_1b_1" arrivalPos="596.00" arrivalSpeed="30.01" duration="50.00" routeLength="1494.90" waitingTime="0.00" waitingCount="0" stopTime="0.00" timeLoss="0.47" rerouteNo="0" devices="tripinfo_mainFlow.57" vType="car" speedFactor="0.91" vaporized=""/>
    <tripinfo id="mainFlow.59" depart="118.00" departLane="main_0_0" departPos="5.10" departSpeed="34.07" departDelay="0.00" arrival="165.20" arrivalLane="main_1b_1" arrivalPos="596.00" arrivalSpeed="32.56" duration="47.20" routeLength="1494.90" waitingTime="0.00" waitingCount="0" stopTime="0.00" timeLoss="3.29" rerouteNo="0" devices="tripinfo_mainFlow.59" vType="car" speedFactor="1.02" vaporized=""/>
    <tripinfo id="rampFlow.10" depart="120.00" departLane="ramp_0_0" departPos="5.10" departSpeed="21.62" departDelay="0.00" arrival="166.20" arrivalLane="main_1b_0" arrivalPos="596.00" arrivalSpeed="32.40" duration="46.20" routeLength="1146.27" waitingTime="0.00" waitingCount="0" stopTime="0.00" timeLoss="8.07" rerouteNo="0" devices="tripinfo_rampFlow.10" vType="car" speedFactor="0.97" vaporized=""/>
    <tripinfo id="mainFlow.60" depart="120.00" departLane="main_0_1" departPos="5.10" departSpeed="34.10" departDelay="0.00" arrival="166.40" arrivalLane="main_1b_1" arrivalPos="596.00" arrivalSpeed="33.91" duration="46.40" routeLength="1494.90" waitingTime="0.00" waitingCount="0" stopTime="0.00" timeLoss="2.53" rerouteNo="0" devices="tripinfo_mainFlow.60" vType="car" speedFactor="1.02" vaporized=""/>