<?xml version="1.0" encoding="UTF-8"?>

<!-- generated on 2025-11-08 15:59:28 by Eclipse SUMO sumo Version 1.24.0
<sumoConfiguration xmlns:xsi="http://www.w3.org/2001/XMLSchema-instance" xsi:noNamespaceSchemaLocation="http://sumo.dlr.de/xsd/sumoConfiguration.xsd">

    <input>
        <net-file value="ramp/ramp.net.xml"/>
        <route-files value="ramp/ramp.rou.xml"/>
    </input>

    <output>
        <summary-output value="Output/summary.xml"/>
        <tripinfo-output value="Output/tripinfo.xml"/>
        <edgedata-output value="Output/edgeData.xml"/>
    </output>

    <time>
        <begin value="0"/>
        <end value="900"/>
        <step-length value="0.2"/>
    </time>

    <report>
        <no-step-log value="true"/>
    </report>

</sumoConfiguration>
-->

<tripinfos xmlns:xsi="http://www.w3.org/2001/XMLSchema-instance" xsi:noNamespaceSchemaLocation="http://sumo.dlr.de/xsd/tripinfo_file.xsd">
    <tripinfo id="mainFlow.0" depart="0.00" departLane="main_0_0" departPos="5.10" departSpeed="35.33" departDelay="0.00" arrival="42.60" arrivalLane="main_1b_1" arrivalPos="596.00" arrivalSpeed="35.10" duration="42.60" routeLength="1494.90" waitingTime="0.00" waitingCount="0" stopTime="0.00" timeLoss="0.16" rerouteNo="0" devices="tripinfo_mainFlow.0" vType="car" speedFactor="1.06" vaporized=""/>
    <tripinfo id="rampFlow.0" depart="0.00" departLane="ramp_0_0" departPos="5.10" departSpeed="20.85" departDelay="0.00" arrival="45.40" arrivalLane="main_1b_0" arrivalPos="596.00" arrivalSpeed="31.11" duration="45.40" routeLength="1146.27" waitingTime="0.00" waitingCount="0" stopTime="0.00" timeLoss="5.96" rerouteNo="0" devices="tripinfo_rampFlow.0" vType="car" speedFactor="0.94" vaporized=""/>
    <tripinfo id="mainFlow.1" depart="4.60" departLane="main_0_1" departPos="5.10" departSpeed="33.68" departDelay="0.10" arrival="49.20" arrivalLane="main_1b_0" arrivalPos="596.00" arrivalSpeed="33.53" duration="44.60" routeLength="1494.90" waitingTime="0.00" waitingCount="0" stopTime="0.00" timeLoss="0.18" rerouteNo="0" devices="tripinfo_mainFlow.1" vType="car" speedFactor="1.01" vaporized=""/>
    <tripinfo id="rampFlow.1" depart="8.00" departLane="ramp_0_0" departPos="5.10" departSpeed="24.06" departDelay="0.00" arrival="49.80" arrivalLane="main_1b_1" arrivalPos="596.00" arrivalSpeed="36.05" duration="41.80" routeLength="1146.27" waitingTime="0.00" waitingCount="0" stopTime="0.00" timeLoss="7.52" rerouteNo="0" devices="tripinfo_rampFlow.1" vType="car" speedFactor="1.08" vaporized=""/>
    <tripinfo id="mainFlow.2" depart="9.00" departLane="main_0_0" departPos="5.10" departSpeed="34.34" departDelay="0.00" arrival="52.80" arrivalLane="main_1b_0" arrivalPos="596.00" arrivalSpeed="34.08" duration="43.80" routeLength="1494.90" waitingTime="0.00" waitingCount="0" stopTime="0.00" timeLoss="0.17" rerouteNo="0" devices="tripinfo_mainFlow.2" vType="car" speedFactor="1.03" vaporized=""/>
    <tripinfo id="rampFlow.2" depart="16.00" departLane="ramp_0_0" departPos="5.10" departSpeed="23.24" departDelay="0.00" arrival="58.80" arrivalLane="main_1b_0" arrivalPos="596.00" arrivalSpeed="34.81" duration="42.80" routeLength="1146.27" waitingTime="0.00" waitingCount="0" stopTime="0.00" timeLoss="7.32" rerouteNo="0" devices="tripinfo_rampFlow.2" vType="car" speedFactor="1.05" vaporized=""/>
    <tripinfo id="mainFlow.3" depart="13.60" departLane="main_0_1" departPos="5.10" departSpeed="27.70" departDelay="0.10" arrival="68.00" arrivalLane="main_1b_0" arrivalPos="596.00" arrivalSpeed="27.49" duration="54.40" routeLength="1494.90" waitingTime="0.00" waitingCount="0" stopTime="0.00" timeLoss="0.26" rerouteNo="0" devices="tripinfo_mainFlow.3" vType="car" speedFactor="0.83" vaporized=""/>
    <tripinfo id="mainFlow.4" depart="18.00" departLane="main_0_0" departPos="5.10" departSpeed="29.53" departDelay="0.00" arrival="69.20" arrivalLane="main_1b_0" arrivalPos="596.00" arrivalSpeed="29.31" duration="51.20" routeLength="1494.90" waitingTime="0.00" waitingCount="0" stopTime="0.00" timeLoss="0.55" rerouteNo="0" devices="tripinfo_mainFlow.4" vType="car" speedFactor="0.89" vaporized=""/>
    <tripinfo id="mainFlow.6" depart="27.00" departLane="main_0_0" departPos="5.10" departSpeed="36.35" departDelay="0.00" arrival="69.20" arrivalLane="main_1b_1" arrivalPos="596.00" arrivalSpeed="36.25" duration="42.20" routeLength="1494.90" waitingTime="0.00" waitingCount="0" stopTime="0.00" timeLoss="1.05" rerouteNo="0" devices="tripinfo_mainFlow.6" vType="car" speedFactor="1.09" vaporized=""/>
    <tripinfo id="mainFlow.5" depart="22.60" departLane="main_0_1" departPos="5.10" departSpeed="31.26" departDelay="0.10" arrival="70.80" arrivalLane="main_1b_0" arrivalPos="596.00" arrivalSpeed="31.26" duration="48.20" routeLength="1494.90" waitingTime="0.00" waitingCount="0" stopTime="0.00" timeLoss="0.30" rerouteNo="0" devices="tripinfo_mainFlow.5" vType="car" speedFactor="0.94" vaporized=""/>
    <tripinfo id="rampFlow.3" depart="24.00" departLane="ramp_0_0" departPos="5.10" departSpeed="19.04" departDelay="0.00" arrival="73.40" arrivalLane="main_1b_0" arrivalPos="596.00" arrivalSpeed="28.34" duration="49.40" routeLength="1146.27" waitingTime="0.00" waitingCount="0" stopTime="0.00" timeLoss="6.01" rerouteNo="0" devices="tripinfo_rampFlow.3" vType="car" speedFactor="0.86" vaporized=""/>
    <tripinfo id="rampFlow.4" depart="32.00" departLane="ramp_0_0" departPos="5.10" departSpeed="23.27" departDelay="0.00" arrival="75.00" arrivalLane="main_1b_0" arrivalPos="596.00" arrivalSpeed="34.33" duration="43.00" routeLength="1146.27" waitingTime="0.00" waitingCount="0" stopTime="0.00" timeLoss="7.63" rerouteNo="0" devices="tripinfo_rampFlow.4" vType="car" speedFactor="1.05" vaporized=""/>
    <tripinfo id="mainFlow.7" depart="31.60" departLane="main_0_0" departPos="5.10" departSpeed="34.21" departDelay="0.10" arrival="75.60" arrivalLane="main_1b_1" arrivalPos="596.00" arrivalSpeed="34.13" duration="44.00" routeLength="1494.90" waitingTime="0.00" waitingCount="0" stopTime="0.00" timeLoss="0.17" rerouteNo="0" devices="tripinfo_mainFlow.7" vType="car" speedFactor="1.03" vaporized=""/>
    <tripinfo id="mainFlow.8" depart="36.00" departLane="main_0_1" departPos="5.10" departSpeed="37.43" departDelay="0.00" arrival="76.80" arrivalLane="main_1b_1" arrivalPos="596.00" arrivalSpeed="36.93" duration="40.80" routeLength="1494.90" waitingTime="0.00" waitingCount="0" stopTime="0.00" timeLoss="0.85" rerouteNo="0" devices="tripinfo_mainFlow.8" vType="car" speedFactor="1.12" vaporized=""/>
    <tripinfo id="rampFlow.5" depart="40.00" departLane="ramp_0_0" departPos="5.10" departSpeed="22.02" departDelay="0.00" arrival="84.60" arrivalLane="main_1b_0" arrivalPos="596.00" arrivalSpeed="32.85" duration="44.60" routeLength="1146.27" waitingTime="0.00" waitingCount="0" stopTime="0.00" timeLoss="6.99" rerouteNo="0" devices="tripinfo_rampFlow.5" vType="car" speedFactor="0.99" vaporized=""/>
    <tripinfo id="mainFlow.9" depart="40.60" departLane="main_0_0" departPos="5.10" departSpeed="30.89" departDelay="0.10" arrival="89.20" arrivalLane="main_1b_0" arrivalPos="596.00" arrivalSpeed="30.85" duration="48.60" routeLength="1494.90" waitingTime="0.00" waitingCount="0" stopTime="0.00" timeLoss="0.20" rerouteNo="0" devices="tripinfo_mainFlow.9" vType="car" speedFactor="0.93" vaporized=""/>
    <tripinfo id="rampFlow.6" depart="48.00" departLane="ramp_0_0" departPos="5.10" departSpeed="20.92" departDelay="0.00" arrival="93.80" arrivalLane="main_1b_0" arrivalPos="596.00" arrivalSpeed="31.17" duration="45.80" routeLength="1146.27" waitingTime="0.00" waitingCount="0" stopTime="0.00" timeLoss="6.54" rerouteNo="0" devices="tripinfo_rampFlow.6" vType="car" speedFactor="0.94" vaporized=""/>
    <tripinfo id="mainFlow.10" depart="45.00" departLane="main_0_1" departPos="5.10" departSpeed="29.28" departDelay="0.00" arrival="96.40" arrivalLane="main_1b_1" arrivalPos="596.00" arrivalSpeed="29.21" duration="51.40" routeLength="1494.90" waitingTime="0.00" waitingCount="0" stopTime="0.00" timeLoss="0.22" rerouteNo="0" devices="tripinfo_mainFlow.10" vType="car" speedFactor="0.88" vaporized=""/>
    <tripinfo id="mainFlow.12" depart="54.00" departLane="main_0_1" departPos="5.10" departSpeed="38.00" departDelay="0.00" arrival="97.60" arrivalLane="main_1b_1" arrivalPos="596.00" arrivalSpeed="32.20" duration="43.60" routeLength="1494.90" waitingTime="0.00" waitingCount="0" stopTime="0.00" timeLoss="4.25" rerouteNo="0" devices="tripinfo_mainFlow.12" vType="car" speedFactor="1.16" vaporized=""/>
    <tripinfo id="mainFlow.11" depart="49.60" departLane="main_0_0" departPos="5.10" departSpeed="31.20" departDelay="0.10" arrival="98.20" arrivalLane="main_1b_0" arrivalPos="596.00" arrivalSpeed="30.99" duration="48.60" routeLength="1494.90" waitingTime="0.00" waitingCount="0" stopTime="0.00" timeLoss="0.57" rerouteNo="0" devices="tripinfo_mainFlow.11" vType="car" speedFactor="0.94" vaporized=""/>
    <tripinfo id="rampFlow.7" depart="56.00" departLane="ramp_0_0" departPos="5.10" departSpeed="22.62" departDelay="0.00" arrival="99.60" arrivalLane="main_1b_0" arrivalPos="596.00" arrivalSpeed="33.73" duration="43.60" routeLength="1146.27" waitingTime="0.00" waitingCount="0" stopTime="0.00" timeLoss="7.29" rerouteNo="0" devices="tripinfo_rampFlow.7" vType="car" speedFactor="1.02" vaporized=""/>
    <tripinfo id="mainFlow.13" depart="58.60" departLane="main_0_0" departPos="5.10" departSpeed="33.67" departDelay="0.10" arrival="103.20" arrivalLane="main_1b_0" arrivalPos="596.00" arrivalSpeed="33.55" duration="44.60" routeLength="1494.90" waitingTime="0.00" waitingCount="0" stopTime="0.00" timeLoss="0.17" rerouteNo="0" devices="tripinfo_mainFlow.13" vType="car" speedFactor="1.01" vaporized=""/>
    <tripinfo id="mainFlow.14" depart="63.00" departLane="main_0_1" departPos="5.10" departSpeed="32.50" departDelay="0.00" arrival="109.20" arrivalLane="main_1b_0" arrivalPos="596.00" arrivalSpeed="32.27" duration="46.20" routeLength="1494.90" waitingTime="0.00" waitingCount="0" stopTime="0.00" timeLoss="0.18" rerouteNo="0" devices="tripinfo_mainFlow.14" vType="car" speedFactor="0.97" vaporized=""/>
    <tripinfo id="rampFlow.8" depart="64.00" departLane="ramp_0_0" departPos="5.10" departSpeed="19.77" departDelay="0.00" arrival="111.80" arrivalLane="main_1b_0" arrivalPos="596.00" arrivalSpeed="29.48" duration="47.80" routeLength="1146.27" waitingTime="0.00" waitingCount="0" stopTime="0.00" timeLoss="6.13" rerouteNo="0" devices="tripinfo_rampFlow.8" vType="car" speedFactor="0.89" vaporized=""/>
    <tripinfo id="rampFlow.9" depart="72.00" departLane="ramp_0_0" departPos="5.10" departSpeed="20.38" departDelay="0.00" arrival="119.00" arrivalLane="main_1b_0" arrivalPos="596.00" arrivalSpeed="30.39" duration="47.00" routeLength="1146.27" waitingTime="0.00" waitingCount="0" stopTime="0.00" timeLoss="6.62" rerouteNo="0" devices="tripinfo_rampFlow.9" vType="car" speedFactor="0.92" vaporized=""/>
    <tripinfo id="mainFlow.15" depart="67.60" departLane="main_0_0" departPos="5.10" departSpeed="27.52" departDelay="0.10" arrival="122.20" arrivalLane="main_1b_0" arrivalPos="596.00" arrivalSpeed="27.38" duration="54.60" routeLength="1494.90" waitingTime="0.00" waitingCount="0" stopTime="0.00" timeLoss="0.25" rerouteNo="0" devices="tripinfo_mainFlow.15" vType="car" speedFactor="0.83" vaporized=""/>
    <tripinfo id="mainFlow.16" depart="72.00" departLane="main_0_1" departPos="5.10" departSpeed="29.08" departDelay="0.00" arrival="123.80" arrivalLane="main_1b_0" arrivalPos="596.00" arrivalSpeed="28.88" duration="51.80" routeLength="1494.90" waitingTime="0.00" waitingCount="0" stopTime="0.00" timeLoss="0.28" rerouteNo="0" devices="tripinfo_mainFlow.16" vType="car" speedFactor="0.87" vaporized=""/>
    <tripinfo id="mainFlow.17" depart="76.60" departLane="main_0_0" departPos="5.10" departSpeed="31.62" departDelay="0.10" arrival="124.20" arrivalLane="main_1b_1" arrivalPos="596.00" arrivalSpeed="31.41" duration="47.60" routeLength="1494.90" waitingTime="0.00" waitingCount="0" stopTime="0.00" timeLoss="0.19" rerouteNo="0" devices="tripinfo_mainFlow.17" vType="car" speedFactor="0.95" vaporized=""/>
    <tripinfo id="rampFlow.10" depart="80.00" departLane="ramp_0_0" departPos="5.10" departSpeed="25.15" departDelay="0.00" arrival="125.20" arrivalLane="main_1b_0" arrivalPos="596.00" arrivalSpeed="31.91" duration="45.20" routeLength="1146.27" waitingTime="0.00" waitingCount="0" stopTime="0.00" timeLoss="12.36" rerouteNo="0" devices="tripinfo_rampFlow.10" vType="car" speedFactor="1.13" vaporized=""/>
    <tripinfo id="mainFlow.19" depart="85.60" departLane="main_0_0" departPos="5.10" departSpeed="38.00" departDelay="0.10" arrival="126.20" arrivalLane="main_1b_1" arrivalPos="596.00" arrivalSpeed="37.79" duration="40.60" routeLength="1494.90" waitingTime="0.00" waitingCount="0" stopTime="0.00" timeLoss="1.13" rerouteNo="0" devices="tripinfo_mainFlow.19" vType="car" speedFactor="1.18" vaporized=""/>
    <tripinfo id="rampFlow.11" depart="88.00" departLane="ramp_0_0" departPos="5.10" departSpeed="25.65" departDelay="0.00" arrival="128.00" arrivalLane="main_1b_1" arrivalPos="596.00" arrivalSpeed="37.89" duration="40.00" routeLength="1146.27" waitingTime="0.00" waitingCount="0" stopTime="0.00" timeLoss="7.48" rerouteNo="0" devices="tripinfo_rampFlow.11" vType="car" speedFactor="1.15" vaporized=""/>
    <tripinfo id="mainFlow.18" depart="81.00" departLane="main_0_1" departPos="5.10" departSpeed="31.04" departDelay="0.00" arrival="129.40" arrivalLane="main_1b_0" arrivalPos="596.00" arrivalSpeed="31.03" duration="48.40" routeLength="1494.90" waitingTime="0.00" waitingCount="0" stopTime="0.00" timeLoss="0.20" rerouteNo="0" devices="tripinfo_mainFlow.18" vType="car" speedFactor="0.93" vaporized=""/>
    <tripinfo id="mainFlow.21" depart="94.60" departLane="main_0_1" departPos="5.10" departSpeed="38.00" departDelay="0.10" arrival="134.20" arrivalLane="main_1b_1" arrivalPos="596.00" arrivalSpeed="37.91" duration="39.60" routeLength="1494.90" waitingTime="0.00" waitingCount="0" stopTime="0.00" timeLoss="0.13" rerouteNo="0" devices="tripinfo_mainFlow.21" vType="car" speedFactor="1.17" vaporized=""/>
    <tripinfo id="mainFlow.20" depart="90.00" departLane="main_0_0" departPos="5.10" departSpeed="33.50" departDelay="0.00" arrival="134.80" arrivalLane="main_1b_0" arrivalPos="596.00" arrivalSpeed="33.49" duration="44.80" routeLength="1494.90" waitingTime="0.00" waitingCount="0" stopTime="0.00" timeLoss="0.16" rerouteNo="0" devices="tripinfo_mainFlow.20" vType="car" speedFactor="1.01" vaporized=""/>
    <tripinfo id="rampFlow.12" depart="96.00" departLane="ramp_0_0" departPos="5.10" departSpeed="22.10" departDelay="0.00" arrival="139.80" arrivalLane="main_1b_0" arrivalPos="596.00" arrivalSpeed="33.15" duration="43.80" routeLength="1146.27" waitingTime="0.00" waitingCount="0" stopTime="0.00" timeLoss="6.54" rerouteNo="0" devices="tripinfo_rampFlow.12" vType="car" speedFactor="0.99" vaporized=""/>
    <tripinfo id="mainFlow.22" depart="99.00" departLane="main_0_0" departPos="5.10" departSpeed="33.99" departDelay="0.00" arrival="143.20" arrivalLane="main_1b_0" arrivalPos="596.00" arrivalSpeed="33.75" duration="44.20" routeLength="1494.90" waitingTime="0.00" waitingCount="0" stopTime="0.00" timeLoss="0.17" rerouteNo="0" devices="tripinfo_mainFlow.22" vType="car" speedFactor="1.02" vaporized=""/>
    <tripinfo id="rampFlow.13" depart="104.00" departLane="ramp_0_0" departPos="5.10" departSpeed="26.21" departDelay="0.00" arrival="144.60" arrivalLane="main_1b_0" arrivalPos="596.00" arrivalSpeed="37.83" duration="40.60" routeLength="1146.27" waitingTime="0.00" waitingCount="0" stopTime="0.00" timeLoss="8.30" rerouteNo="0" devices="tripinfo_rampFlow.13" vType="car" speedFactor="1.18" vaporized=""/>
    <tripinfo id="mainFlow.24" depart="108.00" departLane="main_0_0" departPos="5.10" departSpeed="36.74" departDelay="0.00" arrival="149.60" arrivalLane="main_1b_1" arrivalPos="596.00" arrivalSpeed="36.72" duration="41.60" routeLength="1494.90" waitingTime="0.00" waitingCount="0" stopTime="0.00" timeLoss="0.74" rerouteNo="0" devices="tripinfo_mainFlow.24" vType="car" speedFactor="1.10" vaporized=""/>
    <tripinfo id="mainFlow.23" depart="103.60" departLane="main_0_1" departPos="5.10" departSpeed="32.44" departDelay="0.10" arrival="150.00" arrivalLane="main_1b_0" arrivalPos="596.00" arrivalSpeed="32.42" duration="46.40" routeLength="1494.90" waitingTime="0.00" waitingCount="0" stopTime="0.00" timeLoss="0.18" rerouteNo="0" devices="tripinfo_mainFlow.23" vType="car" speedFactor="0.97" vaporized=""/>
    <tripinfo id="mainFlow.25" depart="112.60" departLane="main_0_1" departPos="5.10" departSpeed="34.34" departDelay="0.10" arrival="156.40" arrivalLane="main_1b_1" arrivalPos="596.00" arrivalSpeed="34.22" duration="43.80" routeLength="1494.90" waitingTime="0.00" waitingCount="0" stopTime="0.00" timeLoss="0.16" rerouteNo="0" devices="tripinfo_mainFlow.25" vType="car" speedFactor="1.03" vaporized=""/>
    <tripinfo id="rampFlow.14" depart="112.00" departLane="ramp_0_0" departPos="5.10" departSpeed="20.01" departDelay="0.00" arrival="159.40" arrivalLane="main_1b_0" arrivalPos="596.00" arrivalSpeed="29.80" duration="47.40" routeLength="1146.27" waitingTime="0.00" waitingCount="0" stopTime="0.00" timeLoss="6.18" rerouteNo="0" devices="tripinfo_rampFlow.14" vType="car" speedFactor="0.90" vaporized=""/>
    <tripinfo id="rampFlow.15" depart="120.00" departLane="ramp_0_0" departPos="5.10" departSpeed="24.26" departDelay="0.00" arrival="161.40" arrivalLane="main_1b_0" arrivalPos="596.00" arrivalSpeed="36.29" duration="41.40" routeLength="1146.27" waitingTime="0.00" waitingCount="0" stopTime="0.00" timeLoss="7.44" rerouteNo="0" devices="tripinfo_rampFlow.15" vType="car" speedFactor="1.09" vaporized=""/>
    <tripinfo id="mainFlow.26" depart="117.00" departLane="main_0_0" departPos="5.10" departSpeed="31.90" departDelay="0.00" arrival="164.20" arrivalLane="main_1b_1" arrivalPos="596.00" arrivalSpeed="31.87" duration="47.20" routeLength="1494.90" waitingTime="0.00" waitingCount="0" stopTime="0.00" timeLoss="0.18" rerouteNo="0" devices="tripinfo_mainFlow.26" vType="car" speedFactor="0.96" vaporized=""/>
    <tripinfo id="mainFlow.27" depart="121.60" departLane="main_0_1" departPos="5.10" departSpeed="34.59" departDelay="0.10" arrival="165.40" arrivalLane="main_1b_1" arrivalPos="596.00" arrivalSpeed="34.54" duration="43.80" routeLength="1494.90" waitingTime="0.00" waitingCount="0" stopTime="0.00" timeLoss="0.58" rerouteNo="0" devices="tripinfo_mainFlow.27" vType="car" speedFactor="1.04" vaporized=""/>
    <tripinfo id="mainFlow.28" depart="126.00" departLane="main_0_0" departPos="5.10" departSpeed="34.78" departDelay="0.00" arrival="169.20" arrivalLane="main_1b_1" arrivalPos="596.00" arrivalSpeed="34.69" duration="43.20" routeLength="1494.90" waitingTime="0.00" waitingCount="0" stopTime="0.00" timeLoss="0.17" rerouteNo="0" devices="tripinfo_mainFlow.28" vType="car" speedFactor="1.04" vaporized=""/>
    <tripinfo id="rampFlow.16" depart="128.00" departLane="ramp_0_0" departPos="5.10" departSpeed="24.18" departDelay="0.00" arrival="170.20" arrivalLane="main_1b_0" arrivalPos="596.00" arrivalSpeed="36.07" duration="42.20" routeLength="1146.27" waitingTime="0.00" waitingCount="0" stopTime="0.00" timeLoss="8.09" rerouteNo="0" devices="tripinfo_rampFlow.16" vType="car" speedFactor="1.09" vaporized=""/>
    <tripinfo id="mainFlow.29" depart="130.60" departLane="main_0_1" departPos="5.10" departSpeed="33.24" departDelay="0.10" arrival="175.80" arrivalLane="main_1b_0" arrivalPos="596.00" arrivalSpeed="33.00" duration="45.20" routeLength="1494.90" waitingTime="0.00" waitingCount="0" stopTime="0.00" timeLoss="0.18" rerouteNo="0" devices="tripinfo_mainFlow.29" vType="car" speedFactor="1.00" vaporized=""/>
    <tripinfo id="rampFlow.17" depart="136.00" departLane="ramp_0_0" departPos="5.10" departSpeed="19.48" departDelay="0.00" arrival="184.20" arrivalLane="main_1b_0" arrivalPos="596.00" arrivalSpeed="28.97" duration="48.20" routeLength="1146.27" waitingTime="0.00" waitingCount="0" stopTime="0.00" timeLoss="5.92" rerouteNo="0" devices="tripinfo_rampFlow.17" vType="car" speedFactor="0.88" vaporized=""/>
    <tripinfo id="mainFlow.30" depart="135.00" departLane="main_0_0" departPos="5.10" departSpeed="30.01" departDelay="0.00" arrival="185.20" arrivalLane="main_1b_1" arrivalPos="596.00" arrivalSpeed="29.81" duration="50.20" routeLength="1494.90" waitingTime="0.00" waitingCount="0" stopTime="0.00" timeLoss="0.22" rerouteNo="0" devices="tripinfo_mainFlow.30" vType="car" speedFactor="0.90" vaporized=""/>
    <tripinfo id="rampFlow.18" depart="144.00" departLane="ramp_0_0" departPos="5.10" departSpeed="25.97" departDelay="0.00" arrival="186.60" arrivalLane="main_1b_1" arrivalPos="596.00" arrivalSpeed="33.17" duration="42.60" routeLength="1146.27" waitingTime="0.00" waitingCount="0" stopTime="0.00" timeLoss="10.11" rerouteNo="0" devices="tripinfo_rampFlow.18" vType="car" speedFactor="1.17" vaporized=""/>
    <tripinfo id="mainFlow.31" depart="139.60" departLane="main_0_1" departPos="5.10" departSpeed="28.34" departDelay="0.10" arrival="192.60" arrivalLane="main_1b_0" arrivalPos="596.00" arrivalSpeed="28.19" duration="53.00" routeLength="1494.90" waitingTime="0.00" waitingCount="0" stopTime="0.00" timeLoss="0.24" rerouteNo="0" devices="tripinfo_mainFlow.31" vType="car" speedFactor="0.85" vaporized=""/>
    <tripinfo id="mainFlow.33" depart="148.60" departLane="main_0_1" departPos="5.10" departSpeed="33.89" departDelay="0.10" arrival="193.00" arrivalLane="main_1b_1" arrivalPos="596.00" arrivalSpeed="33.68" duration="44.40" routeLength="1494.90" waitingTime="0.00" waitingCount="0" stopTime="0.00" timeLoss="0.21" rerouteNo="0" devices="tripinfo_mainFlow.33" vType="car" speedFactor="1.02" vaporized=""/>
    <tripinfo id="rampFlow.19" depart="152.00" departLane="ramp_0_0" departPos="5.10" departSpeed="24.35" departDelay="0.00" arrival="194.20" arrivalLane="main_1b_1" arrivalPos="596.00" arrivalSpeed="36.30" duration="42.20" routeLength="1146.27" waitingTime="0.00" waitingCount="0" stopTime="0.00" timeLoss="8.38" rerouteNo="0" devices="tripinfo_rampFlow.19" vType="car" speedFactor="1.10" vaporized=""/>
    <tripinfo id="mainFlow.32" depart="144.00" departLane="main_0_0" departPos="5.10" departSpeed="28.49" departDelay="0.00" arrival="196.80" arrivalLane="main_1b_0" arrivalPos="596.00" arrivalSpeed="28.46" duration="52.80" routeLength="1494.90" waitingTime="0.00" waitingCount="0" stopTime="0.00" timeLoss="0.24" rerouteNo="0" devices="tripinfo_mainFlow.32" vType="car" speedFactor="0.85" vaporized=""/>
    <tripinfo id="mainFlow.34" depart="153.00" departLane="main_0_0" departPos="5.10" departSpeed="33.44" departDelay="0.00" arrival="198.00" arrivalLane="main_1b_1" arrivalPos="596.00" arrivalSpeed="33.37" duration="45.00" routeLength="1494.90" waitingTime="0.00" waitingCount="0" stopTime="0.00" timeLoss="0.18" rerouteNo="0" devices="tripinfo_mainFlow.34" vType="car" speedFactor="1.00" vaporized=""/>
    <tripinfo id="mainFlow.36" depart="162.00" departLane="main_0_0" departPos="5.10" departSpeed="38.00" departDelay="0.00" arrival="201.80" arrivalLane="main_1b_1" arrivalPos="596.00" arrivalSpeed="37.78" duration="39.80" routeLength="1494.90" waitingTime="0.00" waitingCount="0" stopTime="0.00" timeLoss="0.32" rerouteNo="0" devices="tripinfo_mainFlow.36" vType="car" speedFactor="1.14" vaporized=""/>
    <tripinfo id="mainFlow.35" depart="157.60" departLane="main_0_1" departPos="5.10" departSpeed="33.20" departDelay="0.10" arrival="203.00" arrivalLane="main_1b_0" arrivalPos="596.00" arrivalSpeed="33.18" duration="45.40" routeLength="1494.90" waitingTime="0.00" waitingCount="0" stopTime="0.00" timeLoss="0.18" rerouteNo="0" devices="tripinfo_mainFlow.35" vType="car" speedFactor="1.00" vaporized=""/>
    <tripinfo id="rampFlow.20" depart="160.00" departLane="ramp_0_0" departPos="5.10" departSpeed="19.97" departDelay="0.00" arrival="207.40" arrivalLane="main_1b_0" arrivalPos="596.00" arrivalSpeed="29.84" duration="47.40" routeLength="1146.27" waitingTime="0.00" waitingCount="0" stopTime="0.00" timeLoss="6.08" rerouteNo="0" devices="tripinfo_rampFlow.20" vType="car" speedFactor="0.90" vaporized=""/>
    <tripinfo id="mainFlow.37" depart="166.60" departLane="main_0_1" departPos="5.10" departSpeed="34.12" departDelay="0.10" arrival="210.60" arrivalLane="main_1b_0" arrivalPos="596.00" arrivalSpeed="33.91" duration="44.00" routeLength="1494.90" waitingTime="0.00" waitingCount="0" stopTime="0.00" timeLoss="0.16" rerouteNo="0" devices="tripinfo_mainFlow.37" vType="car" speedFactor="1.02" vaporized=""/>
    <tripinfo id="rampFlow.21" depart="168.00" departLane="ramp_0_0" departPos="5.10" departSpeed="21.54" departDelay="0.00" arrival="212.60" arrivalLane="main_1b_0" arrivalPos="596.00" arrivalSpeed="32.14" duration="44.60" routeLength="1146.27" waitingTime="0.00" waitingCount="0" stopTime="0.00" timeLoss="6.47" rerouteNo="0" devices="tripinfo_rampFlow.21" vType="car" speedFactor="0.97" vaporized=""/>
    <tripinfo id="mainFlow.38" depart="171.00" departLane="main_0_0" departPos="5.10" departSpeed="36.08" departDelay="0.00" arrival="214.00" arrivalLane="main_1b_0" arrivalPos="596.00" arrivalSpeed="35.09" duration="43.00" routeLength="1494.90" waitingTime="0.00" waitingCount="0" stopTime="0.00" timeLoss="1.43" rerouteNo="0" devices="tripinfo_mainFlow.38" vType="car" speedFactor="1.08" vaporized=""/>
    <tripinfo id="mainFlow.39" depart="175.60" departLane="main_0_1" departPos="5.10" departSpeed="37.31" departDelay="0.10" arrival="216.00" arrivalLane="main_1b_1" arrivalPos="596.00" arrivalSpeed="37.21" duration="40.40" routeLength="1494.90" waitingTime="0.00" waitingCount="0" stopTime="0.00" timeLoss="0.14" rerouteNo="0" devices="tripinfo_mainFlow.39" vType="car" speedFactor="1.12" vaporized=""/>
    <tripinfo id="rampFlow.22" depart="176.00" departLane="ramp_0_0" departPos="5.10" departSpeed="22.57" departDelay="0.00" arrival="219.20" arrivalLane="main_1b_0" arrivalPos="596.00" arrivalSpeed="33.80" duration="43.20" routeLength="1146.27" waitingTime="0.00" waitingCount="0" stopTime="0.00" timeLoss="6.64" rerouteNo="0" devices="tripinfo_rampFlow.22" vType="car" speedFactor="1.02" vaporized=""/>
    <tripinfo id="mainFlow.40" depart="180.00" departLane="main_0_0" departPos="5.10" departSpeed="32.90" departDelay="0.00" arrival="225.80" arrivalLane="main_1b_0" arrivalPos="596.00" arrivalSpeed="32.69" duration="45.80" routeLength="1494.90" waitingTime="0.00" waitingCount="0" stopTime="0.00" timeLoss="0.19" rerouteNo="0" devices="tripinfo_mainFlow.40" vType="car" speedFactor="0.99" vaporized=""/>
    <tripinfo id="rampFlow.23" depart="184.00" departLane="ramp_0_0" departPos="5.10" departSpeed="20.83" departDelay="0.00" arrival="229.80" arrivalLane="main_1b_0" arrivalPos="596.00" arrivalSpeed="31.20" duration="45.80" routeLength="1146.27" waitingTime="0.00" waitingCount="0" stopTime="0.00" timeLoss="6.38" rerouteNo="0" devices="tripinfo_rampFlow.23" vType="car" speedFactor="0.94" vaporized=""/>
    <tripinfo id="mainFlow.41" depart="184.60" departLane="main_0_1" departPos="5.10" departSpeed="29.41" departDelay="0.10" arrival="235.80" arrivalLane="main_1b_0" arrivalPos="596.00" arrivalSpeed="29.20" duration="51.20" routeLength="1494.90" waitingTime="0.00" waitingCount="0" stopTime="0.00" timeLoss="0.24" rerouteNo="0" devices="tripinfo_mainFlow.41" vType="car" speedFactor="0.88" vaporized=""/>
    <tripinfo id="mainFlow.42" depart="189.00" departLane="main_0_0" departPos="5.10" departSpeed="30.22" departDelay="0.00" arrival="238.80" arrivalLane="main_1b_1" arrivalPos="596.00" arrivalSpeed="30.01" duration="49.80" routeLength="1494.90" waitingTime="0.00" waitingCount="0" stopTime="0.00" timeLoss="0.19" rerouteNo="0" devices="tripinfo_mainFlow.42" vType="car" speedFactor="0.91" vaporized=""/>
    <tripinfo id="rampFlow.24" depart="192.00" departLane="ramp_0_0" departPos="5.10" departSpeed="20.32" departDelay="0.00" arrival="238.80" arrivalLane="main_1b_0" arrivalPos="596.00" arrivalSpeed="30.14" duration="46.80" routeLength="1146.27" waitingTime="0.00" waitingCount="0" stopTime="0.00" timeLoss="6.38" rerouteNo="0" devices="tripinfo_rampFlow.24" vType="car" speedFactor="0.91" vaporized=""/>
    <tripinfo id="mainFlow.43" depart="193.60" departLane="main_0_1" departPos="5.10" departSpeed="34.66" departDelay="0.10" arrival="240.00" arrivalLane="main_1b_1" arrivalPos="596.00" arrivalSpeed="32.28" duration="46.40" routeLength="1494.90" waitingTime="0.00" waitingCount="0" stopTime="0.00" timeLoss="3.18" rerouteNo="0" devices="tripinfo_mainFlow.43" vType="car" speedFactor="1.04" vaporized=""/>
    <tripinfo id="mainFlow.44" depart="198.00" departLane="main_0_0" departPos="5.10" departSpeed="34.07" departDelay="0.00" arrival="242.20" arrivalLane="main_1b_1" arrivalPos="596.00" arrivalSpeed="33.89" duration="44.20" routeLength="1494.90" waitingTime="0.00" waitingCount="0" stopTime="0.00" timeLoss="0.17" rerouteNo="0" devices="tripinfo_mainFlow.44" vType="car" speedFactor="1.02" vaporized=""/>
    <tripinfo id="rampFlow.25" depart="200.00" departLane="ramp_0_0" departPos="5.10" departSpeed="22.73" departDelay="0.00" arrival="243.20" arrivalLane="main_1b_0" arrivalPos="596.00" arrivalSpeed="33.85" duration="43.20" routeLength="1146.27" waitingTime="0.00" waitingCount="0" stopTime="0.00" timeLoss="7.06" rerouteNo="0" devices="tripinfo_rampFlow.25" vType="car" speedFactor="1.02" vaporized=""/>
    <tripinfo id="mainFlow.45" depart="202.60" departLane="main_0_1" departPos="5.10" departSpeed="32.43" departDelay="0.10" arrival="249.00" arrivalLane="main_1b_0" arrivalPos="596.00" arrivalSpeed="32.30" duration="46.40" routeLength="1494.90" waitingTime="0.00" waitingCount="0" stopTime="0.00" timeLoss="0.20" rerouteNo="0" devices="tripinfo_mainFlow.45" vType="car" speedFactor="0.97" vaporized=""/>